<?xml version="1.0"?>
<VTKFile type="UnstructuredGrid" version="0.1" byte_order="LittleEndian">
<UnstructuredGrid>
<Piece NumberOfPoints="22" NumberOfCells="18">
<Points>
<DataArray type="Float32" NumberOfComponents="3" format="ascii">
5.000000e-01	7.000000e-01	8.473969e-317
1.500000e+00	7.000000e-01	8.475629e-317
1.000000e+00	1.260000e+00	8.473795e-317
1.000000e+00	1.400000e-01	8.473850e-317
1.000000e+00	1.400000e+00	8.475684e-317
1.500000e+00	1.400000e+00	8.477257e-317
0.000000e+00	7.000000e-01	8.473147e-317
5.000000e-01	1.400000e+00	8.473408e-317
5.000000e-01	0.000000e+00	8.473463e-317
1.500000e+00	0.000000e+00	8.477716e-317
1.000000e+00	0.000000e+00	8.477416e-317
2.000000e+00	7.000000e-01	8.477471e-317
1.720400e+00	1.400000e+00	8.477313e-317
2.796000e-01	1.400000e+00	8.476981e-317
2.000000e+00	1.400000e+00	8.477526e-317
1.000000e+00	7.567857e-01	8.477582e-317
0.000000e+00	1.400000e+00	8.482119e-317
-0.000000e+00	0.000000e+00	8.477645e-317
2.796000e-01	0.000000e+00	8.482309e-317
1.000000e+00	6.432143e-01	8.482364e-317
2.000000e+00	0.000000e+00	8.482419e-317
1.720400e+00	-0.000000e+00	8.482475e-317
</DataArray>
</Points>
<Cells>
<DataArray type="Int32" Name="connectivity" format="ascii">
	2	0
	2	1
	0	1
	0	3
	1	3
	12	13
	14	12
	15	13
	15	12
	16	17
	16	13
	17	18
	15	19
	19	18
	20	21
	18	21
	14	20
	19	21
</DataArray>
<DataArray type="Int32" Name="offsets" format="ascii">
2
4
6
8
10
12
14
16
18
20
22
24
26
28
30
32
34
36
</DataArray>
<DataArray type="UInt8" Name="types" format="ascii">
3
3
3
3
3
3
3
3
3
3
3
3
3
3
3
3
3
3
</DataArray>
</Cells>
<PointData Scalars="scalars">
<DataArray type="Float32" Name="displacement" NumberOfComponents="3" format="ascii">
-8.808720e-04	-1.770000e-03	0.000000e+00
8.808720e-04	-1.770000e-03	0.000000e+00
0.000000e+00	-3.540000e-03	0.000000e+00
0.000000e+00	0.000000e+00	0.000000e+00
0.000000e+00	0.000000e+00	0.000000e+00
0.000000e+00	0.000000e+00	0.000000e+00
0.000000e+00	0.000000e+00	0.000000e+00
0.000000e+00	0.000000e+00	0.000000e+00
0.000000e+00	0.000000e+00	0.000000e+00
0.000000e+00	0.000000e+00	0.000000e+00
0.000000e+00	0.000000e+00	0.000000e+00
0.000000e+00	0.000000e+00	0.000000e+00
0.000000e+00	0.000000e+00	0.000000e+00
0.000000e+00	0.000000e+00	0.000000e+00
0.000000e+00	0.000000e+00	0.000000e+00
0.000000e+00	0.000000e+00	0.000000e+00
0.000000e+00	0.000000e+00	0.000000e+00
0.000000e+00	0.000000e+00	0.000000e+00
0.000000e+00	0.000000e+00	0.000000e+00
0.000000e+00	0.000000e+00	0.000000e+00
0.000000e+00	0.000000e+00	0.000000e+00
0.000000e+00	0.000000e+00	0.000000e+00
</DataArray>
</PointData>
<CellData Scalars="scalars">
<DataArray type="Float32" Name="damage" format="ascii">
0.000000e+00
0.000000e+00
1.000000e+00
0.000000e+00
0.000000e+00
0.000000e+00
0.000000e+00
0.000000e+00
0.000000e+00
0.000000e+00
0.000000e+00
0.000000e+00
0.000000e+00
0.000000e+00
0.000000e+00
0.000000e+00
0.000000e+00
0.000000e+00
</DataArray>
</CellData>
</Piece>
</UnstructuredGrid>
</VTKFile>
