# vtk DataFile Version 2.0
Unstructured grid legacy vtk file with point scalar data
ASCII

DATASET UNSTRUCTURED_GRID
POINTS 1721 double 
6.38796520894612 16.04769753083001 -0.3145173110749304
33.65950363954916 -28.936709881639114 0.7622717439337054
8.104169536740217 -20.114935607004817 1.7022377640971356
-44.190542766430674 -7.488435732247728 -4.942422175003953
27.192123847463993 40.5370977762528 1.786948053808642
-32.8255478437062 -47.772698625349435 1.862927339532309
37.65507399381448 -40.77789296467346 1.6474963940125513
17.133865979834937 9.341817059999897 0.7932408082247903
-14.559094938463016 -53.27604290996741 2.670666146059888
-33.18328177107099 -62.6865516862469 -0.3109057710123597
-42.518585174025475 -74.21808959234983 -3.7700088114876698
1.7207221194291993 62.584204255850466 0.8454551302791259
-8.108569400594046 -26.649389895341994 3.5551074440473767
17.49363208105938 -37.559108184681115 3.020364591386605
-28.164104792058104 47.98021420682592 3.271215698862138
-19.331114762383073 18.449816951484767 -3.450740380124391
25.518311887406224 -53.795301514001096 0.4071239323728588
32.95802067566619 4.431859572063047 -2.5431950066694924
-22.48047567827851 -16.46867838189415 -0.6469796965949026
8.685017614080797 52.847009477283585 1.2991016461295108
34.10882465199038 -79.68819484819565 -3.376188538102837
-48.07799243411864 76.82254192593577 -3.7336269335168106
-20.90218435418572 -58.43894593699761 -3.6426890887992593
-8.023305607314752 -13.085268444227781 3.224700707146119
-40.728821654345445 -16.949427300672202 -0.5986382373022465
32.78041735203837 72.95899471814164 2.52689720686121
-4.554718783982115 28.673625364215546 -3.518954075444303
-7.964162204230843 -45.45611651336429 -1.0626508485089463
2.9472924086756294 -36.607134017910376 2.4189434010059783
-2.9419891200799304 -80.61514314610403 -2.017048276945017
52.96893085506496 81.70989157221226 -3.5044053818813836
-30.43605716614052 31.260914113884212 -3.2059862705474753
-10.615007614825185 56.56258012795621 -0.9304464666056642
1.8138350945556814 -44.409165775578025 -4.4565908970379535
-15.41469172305547 9.667910641221036 2.289348626307868
-36.23186745409357 70.19397574940015 0.5636019257667692
40.348755865790594 -13.664487266537819 1.1133363291806697
9.754786159697987 -52.311377674349664 -3.1698829400427986
-16.490519236207167 80.27596734241901 2.524477419152542
-10.23745785631678 66.4879556468979 5.303299803891947
-18.039541768765424 -79.80175871742506 2.1206509388668677
-4.506768998620304 44.35054495386457 -4.885133151847546
-18.310032886861087 -36.79971735285016 3.600938796612467
-32.749234602899634 -26.22809249826887 4.252919068800353
13.596703482986095 77.18684821979457 -2.924346015660043
-26.361321205008277 83.47513493517215 0.10208522271306808
-32.461538180626356 19.638982890507638 3.8358581564756697
-20.093935070188508 29.518097699731417 5.157458159001175
13.091035363813262 -80.10458495375049 0.14770772798037077
42.43456962107206 84.1285210576867 3.0948060276882337
3.4037742962433417 -59.73590745528574 2.2174111915790493
11.267707560076282 63.744823491988086 0.9006361645998215
31.853683204814292 55.426079550566776 4.259570050044913
45.33242101992248 21.59678713032382 -5.477621497361028
-14.204249623707613 -0.96617440500172 -2.6891107522389275
38.22601216957712 34.21675587495719 -0.9359781883333707
-6.545971528812011 23.609803564143327 5.279580465920138
-24.639503084590924 70.23228235194588 -3.269890978437986
-53.34074332506043 81.50903567965022 2.075182697072261
18.21762113704191 -18.159394858808263 -3.557033001519149
-52.14450271191466 -83.24443986912422 2.5318224714386828
36.34366997333649 15.76011446118964 -3.936371772691242
-5.364198404614658 -74.84272850556872 5.398129713914252
-43.63173441207153 -64.46369997423433 3.088552919418536
36.207289709537775 51.265498655367644 -4.1583061188243935
-42.46050200931858 2.0764193671370688 1.449944960156626
-4.521222205499328 48.21148050540083 3.239026374806108
25.61767413588355 64.23959764548488 -0.614024541131025
41.8767419622011 65.16231352300466 -1.430490033609198
4.131898742498829 -6.593826180299834 2.36624675109262
45.8727480697487 45.572589777823154 -5.2338578946480245
42.5164864193445 -50.38037933788348 -0.4596952068542155
-19.146130379278357 -28.060991497572267 -3.6604134856435033
-41.94364560197272 31.47653685234885 2.2803961810299267
-7.011375546190989 -72.2042919234582 -3.283847930121315
-22.06770557296479 59.70728525950824 4.592605130755127
1.92539668755559 73.53621070488799 5.354711733225963
-33.59347478960927 57.890029810186725 -2.058433402318583
44.58753056680942 -81.37231134178583 -2.691028020101556
36.53706156243474 -61.48782472925348 -3.836760042963883
-30.910810037542042 5.231221226615176 5.024513609020266
44.62190549486209 57.19882619192391 3.324069924177277
18.01896063335219 39.08879849051016 4.291384951731085
-42.85706582604664 -27.050168106729384 1.0036250655144758
5.011588312553046 33.36529217631352 0.8206645334183151
30.096519290497593 -80.5490717306615 5.514037780454233
28.617591656116105 -18.83279082048195 -4.170041514216095
32.888158882979944 -8.213595554464918 1.4209694962128654
-26.432599782685198 -79.12467182151444 -1.0438857457108526
41.67316623107356 73.41593697126798 0.7775206872690381
11.408908606464273 85.82787012484408 0.06621949111240999
-17.377676059820082 -64.23920466487627 4.843619214640158
9.629065891727508 7.663484633677046 -6.114556420691468
45.6497259454983 30.845462323514727 1.9152631932032043
25.942830121023732 -71.9684254752925 -5.660491580328352
14.507016574348947 -67.31549217738232 3.710121962331519
-46.950689177938855 67.45221456999691 3.9016339185681526
-27.20832989284541 -27.581600733012525 -6.106032677623231
-18.275026078483517 47.50957181624059 -1.213815377039337
44.75754595015843 -68.58126832571486 0.1787677007248924
38.12495679882406 -73.41621317617887 3.6089711075846416
23.037287315440068 26.812494457226492 -2.1437050644288558
45.14829878703708 -2.837827627278968 3.5081172429135217
23.982414304434098 -30.30049540117773 -0.9519397620761278
4.247160882525988 -75.20643936401194 2.5789594009066112
17.499300564613797 33.79041455004257 -2.0884380906258384
10.807508430199377 -32.16350384262471 -2.075711091705208
7.773389392777647 4.581996769132139 4.300878204073687
-36.43556582626121 37.95167434241504 3.7848317152609168
-4.447808944956827 -53.553150663047255 4.899358243822813
30.442645935857534 -68.05813388806143 2.8346821717676813
-43.18113300229814 22.488007788048698 -4.007272247590528
34.939846816194716 24.992628121356987 -5.240356534942058
3.023718663252546 4.706612695781916 -2.526631704931776
11.862601107924762 45.919977429983376 -3.6978668149528575
-40.555369320696535 84.15844458816034 -5.763231265756492
45.80363193300696 -24.201404809250477 -5.842719223695618
20.677213067348223 -61.32403415723607 -1.2993485293966955
-33.72874049138186 13.384819286699743 -6.150329599511038
-31.020013106792028 21.290578695270415 -4.413825698676305
36.26809899067594 19.14754486460172 3.76940110214663
11.259287772319016 26.271745012905612 2.4024289609831944
-31.50254894238892 -80.33025127011123 5.794000186391518
-36.80522138108219 -70.36706660998873 5.468164620908869
-45.573559277143616 48.28497920078299 -1.978303617081517
-1.7733807867870457 84.71404938198619 4.597059851712559
18.80988023113859 -49.00257801022744 5.705523994526787
24.795335826248476 -85.45680356858949 -2.4174151234938535
16.97473374946503 -7.5500708130654735 4.70314486038683
9.524537051325144 69.66957201867562 -4.900483943322954
19.63705491526175 76.99944138534111 3.980517181442733
46.41089889573189 -22.384028235613968 4.16902388469281
33.644809014252886 38.768478778591145 -6.085032066642315
54.87615989289489 78.27128856220575 4.491398266089696
14.603992413585036 -57.7255503611322 6.116951951248026
28.582996249258272 13.150923605664433 -0.943174883679557
1.4972247945344908 -19.483810879468393 -5.85149722023
15.647941190959516 26.277297650682307 -6.093036731463023
-26.103392661869783 -4.472404536657258 4.873707598783218
23.22505829689162 18.109590332081122 -6.220137525275794
-41.59646988052354 -56.12849290758015 0.12270954617545844
-9.150547433942146 -40.267301694768605 6.234477985735871
-18.833219891568138 40.76238140789564 3.3837301166839726
-30.47270495350083 -34.09645653565971 3.3804198120570006
3.5499589492769226 -3.3310403176027528 -4.844484057125812
25.02529476647507 -4.6062771725439475 -2.3695893004321977
33.14158310982189 63.25504238270336 -6.2596351946709365
30.142031837380767 30.878886878076656 -3.2877592900507304
-44.05728900518952 -51.16007667731008 5.290579985356026
43.51126887695105 13.784958423473816 3.273355605305139
-5.715375194498533 1.7656541611409038 4.021198064590171
-43.113867232442175 -44.33341730732541 -1.9249602627632978
2.3882364789810726 -31.046364044488616 -6.105264379324153
-28.57288283969641 -67.96051226452535 -6.297703915155404
-52.14391144448281 -75.08950072626718 0.9673918955968163
49.23396358131282 70.3386544418462 -1.1556724243322503
-22.081157212866177 61.38417900149404 -4.5728137251468475
-9.38467953758721 73.49864416735281 -4.730057111995172
53.53969836967331 -84.55448789814497 4.4873273382550485
-11.134484318191504 83.10978192309366 -5.774387910538453
35.702818918045274 45.33538324069137 1.7290617651440074
18.137613167406144 -44.99375325330446 -3.395983868212557
-44.52542766709173 58.40221348150949 0.9701695964882187
-12.541166688653941 65.93041175626452 -3.854988989578361
42.34663351212459 -0.1010553233438678 -3.8750379141928715
-39.23234464527697 54.480620756620134 -6.437889149623152
-17.374876559063907 -71.01991017627421 -0.4978237879860714
8.125818614258604 -84.09977507669616 6.4803309221376955
-9.713151209558442 -83.99846705714405 2.443652013055799
21.037011084459706 -81.67447337976228 4.811777507530661
17.510265910681397 59.10850696780377 -0.9220510705686227
-9.431178887986942 -37.118814968507266 -5.100714871215901
-4.546963726533552 -7.290772851757196 -6.231794841824287
-42.73286952533102 10.305873766034448 -0.12242441661508607
[...]
POINT_DATA 1721
SCALARS Diameter double
LOOKUP_TABLE default
9.94473082098477
9.881669222816356
9.853538956928885
9.832188549873313
9.807996195909777
9.776937580252415
9.615344985941153
9.585147210675043
9.571871507688625
9.48492640191992
9.468116508239461
9.395775814519247
9.35499221850628
9.27904317873276
9.259115905004897
9.241780308192462
9.220403609721807
9.219695360269519
9.188744161541004
9.123250919029545
8.989740793584375
8.974053145050226
8.964408454896757
8.92682758319014
8.901733703799518
8.842393959776208
8.828922419081856
8.81587482776612
8.815279435432899
8.80419422078964
8.80223134781133
8.756668446606746
8.736252393932661
8.719798166263388
8.682120746722799
8.560969355945723
8.548151745148537
8.522978520345163
8.495653849276168
8.460335741418586
8.40113956594974
8.386507314741563
8.371694271197311
8.364259483371113
8.286859547988136
8.237451428118886
8.21143977322002
8.199245218853145
8.188865841833262
8.181312544512682
8.139453335404484
8.138463483047428
8.112474223150121
8.102196481025855
8.072006771965144
8.037246088082295
8.01815502386063
8.003076949742699
8.000511943469329
7.979792603704975
7.963082494222321
7.9507630084993135
7.9490834506608135
7.928852652745261
7.917409788354869
7.906788433416722
7.905221250465178
7.88797835654446
7.869178846708081
7.7856940976962505
7.782831740512358
7.762297679159875
7.758611386339804
7.7353098655046875
7.7191084612703
7.688321697179099
7.685451623204156
7.661556952830981
7.646853168732153
7.646845896951778
7.639229475002477
7.635180248020863
7.62162376723191
7.606586070547108
7.605470784756795
7.583002585485591
7.581277371861978
7.574977876119508
7.562926748809415
7.546988037806397
7.523664531570464
7.473762963589316
7.469894262737521
7.458491918323439
7.443092201960452
7.435854616994082
7.4226990056163125
7.411555476034253
7.363006702495941
7.355475429854639
7.351585944768582
7.342756691448871
7.299388357494303
7.296144774714371
7.2941033148700445
7.291981121206138
7.285709264409608
7.2802624068417074
7.2707938460733885
7.268961667768053
7.2361254762919955
7.235442029877715
7.224416656761052
7.218097703609624
7.212737702474245
7.200159536022015
7.1965140588747225
7.168670144382631
7.146314429700617
7.1401065347146275
7.106406165564737
7.101109187392221
7.065074174549627
7.049672101638808
7.026650647859995
7.024632955806607
7.02276658849317
7.020923516454252
6.958146283288017
6.9323003799447
6.928567912729875
6.916415524948613
6.907422395586103
6.906567833208993
6.905307978023782
6.901772172961993
6.894045414872533
6.887390347011857
6.880309774981428
6.8794367094385755
6.879355260008095
6.878177944611866
6.872545174237899
6.853128445936338
6.850367148933534
6.805411263840242
6.802719512125046
6.800786317853698
6.799087621248477
6.798345571237196
6.791030257110327
6.777505372545264
6.777354719393995
6.77086241323544
6.7617572671324915
6.740519230708493
6.71770147823448
6.687517072580544
6.6707540280620226
6.667963549705158
6.642310719791153
6.6367920373299425
6.629030964744032
6.629019706920545
6.625324543633319
6.608304856897635
6.607262370704547
6.607105988416587
6.586060784041877
6.583168049241916
6.552084995746015
6.551220447260549
6.549538705839705
6.528471368731373
6.513794800719964
6.509502370200293
6.509220991431529
6.499201490590277
6.479272441791151
6.453360853522774
6.437031605596352
6.43373070709772
6.428629083639984
6.4220718258349585
6.41708476747489
6.4142958635319935
6.405799677023495
6.404862506255199
6.388652890497491
6.3789376074521655
6.3598178641045635
6.355326599340196
6.352834426665568
6.352427796351193
6.346040845062713
6.337334525271352
6.332445320537286
6.303732644637896
6.284130499469493
6.27969566171061
6.277228291948449
6.251494471503327
6.250605412233458
6.2214097238768975
6.214998039005805
6.212101226025269
6.210690673272348
6.208061210877659
6.207037845843411
6.2061362868395715
6.205793300574845
6.1487713471411425
6.144153316041512
6.140031559451589
6.121566039856917
6.116391041837559
6.1132496196132
6.112588929968047
6.095346033388488
6.095199422670528
6.094282846877107
6.087432235565414
6.081118830362172
6.0743726428096725
6.071074438664475
6.0693877036946695
6.061813240739164
6.05398254657694
6.051333474414868
6.051272238524399
6.050405738766692
6.050177067847035
6.038704261964279
6.03633859583916
6.033798453595919
6.020345104785049
6.014962482030938
6.013820278350547
5.979312726752349
5.97580154553168
5.97097990609948
5.943521829632469
5.93228124759954
5.9205204092665324
5.906885996526873
5.895067942572115
5.87278083015906
5.860418354076744
5.858462769991537
5.853568804745979
5.843249928180825
5.830198320179559
5.823874534836843
5.821819180957684
5.821337275828796
5.821118004328933
5.8040537314018765
5.801490089509404
5.7929805564935535
5.787113086186913
5.770421388129076
5.7702745358676175
5.770050973514474
5.758151739149357
5.7553192037743655
5.73018911845255
5.729600938059819
5.726421724964967
5.724421874242863
5.715041952216607
5.7128702603024655
5.698881829511693
5.6942294969570195
5.694044540728191
5.681256412060552
5.680191123733838
5.659112539901438
5.652405158605741
5.652090698249801
5.624584418461923
5.623707769921147
5.620843759889923
5.620630487496892
5.614355106682012
5.609920743636108
5.604615529024361
5.599864864686282
5.595241453943983
5.594357450381205
5.59175509742229
5.588181504716255
5.585652020526203
5.581867556705609
5.576437701561753
5.562543415220128
5.56198660945316
5.552756841540097
5.546852103566255
5.5461640334746765
5.542527823084788
5.539254342018554
5.538141622905736
5.534404928427623
5.527166147899873
5.51800678209585
5.511673631449878
5.509653911085305
5.491641889895213
5.485896148903002
5.482922805061619
5.481498376911862
5.477779579675895
5.468651212792349
5.466374314868274
5.461245457327763
5.4524747621043534
5.4521017736455555
5.450994652186639
5.450892967739019
5.416803043453
5.415506171157358
5.413391618066516
5.411999815759973
5.410138676905493
5.408083319514315
5.40644405964729
5.4044663761021
5.402154232009864
5.385591276949654
5.382349487954739
5.380618274840109
5.3718914190624485
5.369027763615288
5.3683735641507315
5.361897761121767
5.3605642771776765
5.356028303325287
5.3546738082849785
5.34288227502897
5.33932907663429
5.338512472009416
5.3322045053200435
5.330752073306288
5.319149047612452
5.317697048828706
5.308767613518021
5.307097184058631
5.306013268647021
5.3046901561167985
5.303905405044729
5.302877525204423
5.29528381304767
5.2925514346583
5.289388069954599
5.282055664105493
5.274222419557113
5.26987552592614
5.264558468102888
5.2608656101020514
5.243722714461736
5.2328194046410195
5.230387893953094
5.226232945777235
5.222364309494818
5.220351109170077
5.205168970298459
5.201834294013571
5.190117310345972
5.188580112049616
5.188346204278157
5.180275677905806
5.170582930227823
5.168464833512465
5.161316292497041
5.1467267008626525
5.146612669176719
5.1452448254314085
5.1381133701258355
5.13447502963869
5.119921491928191
5.118063829691449
5.092704764587528
5.090789942940344
5.081664563648786
5.080927215306421
5.079267535749758
5.075067211456331
5.075046047955994
5.06516452333833
5.057321631368181
5.055077602747495
5.0533529538384725
5.05166970180033
5.051198045506416
5.044780580652429
5.040007377108041
5.03403079091626
5.032837981335727
5.021776180958603
5.021104884038744
5.020419480818628
5.017670421165889
5.015314633636205
5.014126994472338
5.011049297841581
5.008899345412079
5.002371681184755
4.998089028321069
4.990684663587626
4.982126818646848
4.980375756902365
4.9701500371323295
4.96970578629324
4.96709404049604
4.959633613546871
4.9573234519326785
4.953523807102958
4.951251578139319
4.941356152527224
4.93902007929079
4.934590524624435
4.929144595659528
4.928196044449119
4.925623513995622
4.924439407874752
4.9225182897734285
4.9209880347700725
4.917535046392465
4.914577559750775
4.898584257795827
4.896260473635696
4.895430707329183
4.894359338667902
4.8928391320448865
4.892240165375726
4.887404318886427
4.886627447252267
4.883662486342412
4.8817780118011775
4.880560110902472
4.878892596048956
4.870684867221058
4.870186097530606
4.868929359720556
4.86518132521725
4.853709731829197
4.852070680075618
4.8498521170729765
4.840962155923976
4.839996982741338
4.825885964647615
4.825379119199427
4.8249167079839514
4.822850380545264
4.822118890758386
4.817246011994283
4.809716927016815
4.809574533028994
4.800327259333709
4.797985921780999
4.795909588747369
4.79470751645327
4.792084409209721
4.787188860566249
4.784426702064593
4.784079288047027
4.779921843380558
4.777268154998682
4.7760494982047
4.773668349992482
4.762358117944276
4.761621724549681
4.754248138983481
4.751311204834451
4.749755330199196
4.745676538557224
4.745202318570095
4.74018654800283
4.736548802563398
4.73597887243969
4.733125352659704
4.732695482325765
4.730722622409188
4.7291435973017295
4.725641662054337
4.716258249479022
4.7139154623856765
4.7079374641885146
4.706947857341579
4.706213426742426
4.703632889938898
4.70323467874219
4.699148175660499
4.69869594237333
4.697858585953166
4.6936295388705975
4.688129163791079
4.678770599674232
4.675054644534321
4.673436426624824
4.671277143850068
4.67023141306165
4.667659059771447
4.663229013110504
4.663000237984912
4.657238207032917
4.654515246343882
4.653459717001512
4.6498749218681095
4.641851085353795
4.641022674263358
4.637383531600187
4.6230310141227955
4.614644904852863
4.613567467839585
4.608894493158317
4.60850340353716
4.607056468974274
4.605999596132898
4.596807949270888
4.596276386996715
4.5923718657310895
4.588870285172002
4.588410624200547
4.580687199435618
4.575137234222347
4.574569237225925
4.569560854895648
4.568535821576523
4.554846743590677
4.553891585327436
4.548281098537185
4.546777446394748
4.542038755231292
4.534386659372666
4.530036081099292
4.5280217563217064
4.522009605551776
4.520957427352505
4.517785465643461
4.507391637516193
4.506942752550543
4.494890329085557
4.490777975505552
4.482314037397666
4.481246385286333
4.4806811366092525
4.477124297338966
4.476901405961874
4.47646228466313
4.471696863081868
4.471648331553818
4.471051219076139
4.468984538918388
4.4688610593733875
4.468516561430568
4.453606862834075
4.450538999730092
4.450090292970679
4.444541993071031
4.443990881670695
4.442673914334465
4.441063538981707
4.436522890723839
4.431871533854799
4.422349994744669
4.421461421824555
4.420297138853595
4.416481128072849
4.414858003278509
4.414513447765004
4.411161406657754
4.405854045402034
4.405497907798608
4.404551770267197
4.400497736905751
4.400015859556292
4.3953517732381675
4.395168578860083
4.39196577441549
4.39076460242557
4.390285989149429
4.3886701016471745
4.388051651715203
4.386151282808662
4.385959729783207
4.383236287723719
4.383173276486197
4.382693774389429
4.381192533999791
4.380232262773519
4.375898263114502
4.375138941605037
4.3692519648192265
4.367572720419587
4.3647931046382435
4.359181380650677
4.356405362585992
4.3547508713798075
4.354737662395782
4.35456644477775
4.353758044219326
4.353403271156396
4.353016728185818
4.352786565365115
4.351029618682883
4.349787654664911
4.348712019315672
4.348445908176376
4.3476983098548105
4.343213382377818
4.342689450532593
4.34181370146331
4.3391863699142625
4.337797823389177
4.335780072593691
4.33405354045579
4.334026830520674
4.330913978063973
4.327937586839852
4.322591992852459
4.319246898520045
4.317100979675597
4.316942800936883
4.31684060198266
4.31674279420514
4.315021626535727
4.312397175283007
4.31103479375856
4.306286406511663
4.305334547626005
4.3053286538218885
4.305246900916693
4.301017508495027
4.300919122283377
4.3007455835636055
4.3000860148462285
4.295481466753403
4.2952471307322195
4.294224426138474
4.292033746254612
4.290053068622873
4.288236027491243
4.287971731332004
4.2842066314134915
4.277989825020853
4.271501599160809
4.270443033126268
4.270347165855084
4.267738234458565
4.267021818895432
4.266676243197597
4.266005923233475
4.262637557393459
4.261859611490777
4.261538966617394
4.26010222883689
4.255630898178926
4.25529800372273
4.254611750035529
4.253626537215164
4.251206170040349
4.238736431033214
4.2382297551489785
4.238008165887265
4.2367899110113205
4.236470497272844
4.235391779755142
4.234170475076313
4.233247852599133
4.233075852544012
4.2322673496411625
4.23179013409609
4.22759289217415
4.21809705785111
4.216531116680443
4.215708723938656
4.213849782940295
4.212805806864528
4.211185179748185
4.210302499754398
4.208842519673016
4.2065179009914235
4.206443420374578
4.205122145560307
4.200751432543711
4.200624740871166
4.198970861005973
4.196443916930064
4.196087780024028
4.1935901785605925
4.191829481357958
4.189399639706663
4.189359363521767
4.186676568452786
4.183371466535166
4.180745246646784
4.1764917779519735
4.175011148274892
4.172233143229567
4.171372898107029
4.168680639904579
4.162205445401886
4.1611933367902765
4.160169780904724
4.158816428647995
4.158719091153971
4.152520249210388
4.152297019553754
4.1484717299384855
4.14760015444721
4.146965061782908
4.146848326337787
4.146758781223039
4.144478749199445
4.140314370682553
4.1372962661382005
4.130533371978626
4.129011667719606
4.12732554444377
4.127042814351606
4.124477714649918
4.123367691986055
4.1199853483141435
4.118705587867713
4.114157290130017
4.113722074688351
4.112601328880034
4.105553925431373
4.104210336612686
4.102008566909328
4.101927849386181
4.099944247069929
4.099540721683926
4.089523775093175
4.08724847310156
4.08562861167635
4.085344014812811
4.081027866800712
4.080293461614006
4.07982045056995
4.079694651833313
4.078429904258592
4.0740415053822145
4.073894739055519
4.072171129848112
4.071342414705011
4.070648675915166
4.0702024882738765
4.070170024752992
4.067257871982703
4.066010222263038
4.0629640001251115
4.058098383153744
4.058077694967787
4.057843240298552
4.057821774849345
4.055260795083215
4.053961054468187
4.047847082688907
4.046653474114904
4.045277693590048
4.045081647701917
4.0430094276147255
4.041499009094602
4.040628081132484
4.039908366143221
4.039091611436887
4.038205549303038
4.034882891028811
4.029509587455572
4.027310996416498
4.025927050129782
4.023956076700353
4.019646883333408
4.016748364880625
4.016712793744629
4.015767904444721
4.015505291885416
4.012663263658538
4.010361250410877
4.00974161190064
4.005348517533455
4.005021476421179
4.004905538423619
4.004817988692817
4.004711556992769
4.004655560078552
4.003224890379219
3.999063635976005
3.9987211780596232
3.9971296833264076
3.9965254042535143
3.9957821681316252
3.994044556058828
3.994030341348431
3.991117068642458
3.9905349164590644
3.9845380526247594
3.9831904225722288
3.9807426987635806
3.9781283237999885
3.9777409479187638
3.97725658473341
3.9769427469080063
3.9735553545874343
3.9730598214341204
3.969694809241344
3.966768130679075
3.9657806638674424
3.965376063129267
3.964572900780193
3.9635647743073026
3.962435615315019
3.960739995745553
3.960453286987057
3.959047075878358
3.9572061582667657
3.956299095324694
3.951530413805503
3.9496903444812785
3.9464044984860855
3.946156557908196
3.946010083197648
3.9447964791310737
3.942793630451041
3.941861919459286
3.941413252910496
3.941302570751686
3.9396502417271115
3.938813256568874
3.937177508322659
3.936932042585017
3.9352977398217535
3.933157619145534
3.933101832916202
3.932040906995452
3.9315309725910192
3.928726165254429
3.9286299694867233
3.9257518333386976
3.9257223438027955
3.9256832837921793
3.925444188083958
3.9226751629478946
3.92109786624988
3.9201296057850428
3.918588865444077
3.9149974105801633
3.9148990313992877
3.914113043495063
3.912467895715131
3.909968727807642
3.90852373735346
3.9045449057007615
3.904086467714035
3.901731656529509
3.901683755021107
3.8995098656815106
3.8940438929587353
3.8935313676571788
3.8912585295037507
3.8877299038763518
3.8851763066125153
3.8820801300150167
3.881520462101731
3.8782887908996466
3.8781556981245826
3.8776715358087253
3.8763440346765217
3.8743893217911345
3.8735265115015958
3.87082066648492
3.870724769112667
3.8657664551132234
3.865756980216942
3.8656078157012894
3.865572984264265
3.8651107424822198
3.8648834461949373
3.863665277862868
3.8586743205976255
3.858464498043338
3.8576692312930367
3.856685707092521
3.8562315401052114
3.8559866838210555
3.8542762989677195
3.853668727540398
3.8524900126493034
3.851560799104493
3.8514403026864517
3.8496154972523042
3.8492801677352
3.8479857675983533
3.845135694508909
3.844313044063581
3.8441502655530684
3.8433318945069157
3.8424709685794642
3.8415275256634223
3.840965201960337
3.8404093678717546
3.837656961230704
3.8338887020720405
3.830881431488935
3.830244789902112
3.8297889753791905
3.827831515684059
3.8269701051022462
3.8265360912864033
3.8257276020529067
3.8247885350735986
3.8234042649521056
3.820136384423469
3.8197886538445296
3.819236811682127
3.8170637865084016
3.81684032448619
3.8146476991283653
3.813496789566507
3.812607134656215
3.8111674950092693
3.8104067148644143
3.8099105449800916
3.808464348468852
3.8067487150323602
3.804018948748997
3.8029053672314967
3.7998973315547406
3.7993451417825885
3.798845793497417
3.7979029850507935
3.7954612158093086
3.7951024177102166
3.7943363897487217
3.792022982499086
3.7908914771133233
3.7849644271270666
3.7827038731955804
3.7826806144814253
3.7805899347916156
3.779881999517663
3.7797193050437796
3.778925372701015
3.777958140896142
3.773777183615878
3.771326684024342
3.7703394174982447
3.7698384837959553
3.7690575479474218
3.7681535853835864
3.7642905897099457
3.7641727609035858
3.7635761243447936
3.760085117329819
3.7598171887509304
3.7538000641187796
3.752409312875576
3.7512125168867474
3.747023277656729
3.746189673992847
3.7405094214123267
3.7369116466046735
3.7348770198700447
3.734165511473363
3.733530247272449
3.7320977902504087
3.7316664809905697
3.73096923685316
3.730544588139863
3.7304414349741943
3.729051624860878
3.728901432349332
3.725701374478336
3.725448953785885
3.723863713423248
3.723060185701531
3.7215605739890125
3.7197091960208457
3.71899566673909
3.718246007198715
3.7182072426361934
3.717995450253601
3.7175222533944434
3.715842305834963
3.715602056004471
3.7138508785661655
3.7137959028963636
3.71349909842713
3.7112852516074484
3.710084750329784
3.7096809731809284
3.707956113275486
3.7060830500893664
3.705302082992428
3.7045209841568143
3.7036243809660103
3.7032859683401274
3.7024034401262385
3.70193635538007
3.70136755045563
3.7006544777369506
3.698336587102377
3.6976208119951215
3.6937377789675545
3.6933686402681687
3.692516663121006
3.692422504402831
3.690948739689836
3.6905012519609195
3.6897975924288104
3.6855696207152593
3.6841774270874437
3.681607178762239
3.6813047571275908
3.6798614318362146
3.67789935299287
3.675365044796975
3.674592856383277
3.673792259431477
3.6733431427366554
3.6724975074804362
3.671658875917786
3.6698644707685775
3.6684243301595267
3.667366017442328
3.6663779739286877
3.665963775003732
3.664792048569358
3.6642287196769194
3.663106629496026
3.6600544230791217
3.6592674279014044
3.656119286092931
3.656030401335578
3.653980023470373
3.6521388323369095
3.651071642810993
3.650603987002419
3.649604036959885
3.6482786880648375
3.648039878737677
3.647667052442393
3.647182276958639
3.646159774393185
3.64345729425873
3.643018240809134
3.642867792291092
3.6416099796596493
3.6399086646607803
3.637831689657303
3.6351041350228384
3.633684226819525
3.629692662866516
3.6276361895860116
3.6262483943797976
3.6255330089114244
3.6238872237283077
3.6229059886032076
3.6216446095094006
3.6210982280474866
3.620562552532173
3.618940383268926
3.618726532227381
3.6170998893515662
3.615983500590359
3.6151951897056387
3.614568888097484
3.612906666606544
3.610626894035012
3.6105130847394267
3.610068144444941
3.609380892983344
3.60508683673993
3.604699215349979
3.60349414718609
3.600201580319882
3.5999996478261043
3.5983731184879755
3.5976195217257914
3.5970874479672608
3.596799780217001
3.5962410468545407
3.5956978621105056
3.595375626130309
3.5950626199828983
3.5889295023926353
3.5886826533971945
3.588560330454219
3.5862944368946925
3.5859902864957336
3.5852338788410854
3.585004393533337
3.58493575494305
3.584242938112391
3.579860915062028
3.5754635918143167
3.575008137497138