<?xml version="1.0"?>
<VTKFile type="UnstructuredGrid" version="0.1" byte_order="LittleEndian">
<UnstructuredGrid>
<Piece NumberOfPoints="336" NumberOfCells="243">
<Points>
<DataArray type="Float32" NumberOfComponents="3" format="ascii">
1.000000e-08	1.000000e-08	3.930549e-317
1.000000e-08	1.000000e+00	3.930225e-317
1.000000e-08	3.579350e-01	3.932881e-317
1.000000e-08	2.055245e-01	3.932936e-317
1.000000e-08	8.263091e-01	3.932992e-317
1.000000e-08	5.339704e-01	3.928794e-317
3.000000e+00	1.000000e+00	3.928889e-317
2.495261e+00	9.915551e-01	3.931023e-317
1.192749e+00	6.870175e-01	3.931079e-317
1.115005e+00	1.722899e-01	3.931205e-317
1.589321e+00	4.927029e-01	3.931261e-317
2.039612e+00	5.119032e-01	3.931316e-317
4.580130e-01	4.390033e-01	3.931371e-317
2.500110e+00	3.321852e-01	3.931427e-317
5.037527e-01	7.435587e-01	3.931482e-317
2.745216e+00	9.198497e-01	3.931537e-317
1.011335e+00	8.853096e-01	3.931593e-317
8.095370e-01	2.926086e-01	3.931134e-317
1.164589e+00	9.147655e-01	3.931782e-317
2.895659e+00	6.408367e-01	3.931838e-317
1.998124e+00	7.252732e-01	3.931893e-317
1.819077e+00	1.588257e-01	3.931948e-317
2.266242e+00	5.615484e-01	3.932004e-317
1.073882e+00	4.764239e-01	3.932059e-317
2.549992e-01	2.922868e-01	3.932114e-317
1.684487e+00	3.465555e-01	3.941924e-317
2.882833e+00	7.399784e-02	3.941980e-317
1.581158e+00	9.756611e-02	3.942035e-317
2.166103e+00	2.680094e-02	3.942091e-317
9.288315e-01	5.645507e-01	3.942146e-317
5.338055e-01	2.317055e-01	3.942201e-317
7.585456e-01	1.425010e-02	3.942257e-317
2.580159e+00	5.950114e-01	3.942312e-317
2.097880e+00	8.557249e-01	3.931648e-317
3.209168e-01	5.331690e-01	3.931703e-317
2.340768e+00	2.115218e-01	3.942628e-317
1.516440e+00	6.584470e-01	3.942683e-317
3.869720e-01	9.285538e-01	3.942739e-317
2.965658e+00	3.497217e-01	3.942794e-317
2.016686e+00	2.960706e-01	3.942849e-317
9.300547e-01	3.828836e-01	3.942905e-317
2.314874e+00	7.555247e-01	3.942960e-317
8.596589e-01	7.321593e-01	3.943015e-317
2.869646e+00	7.891636e-01	3.943071e-317
1.434778e+00	6.473960e-02	3.943126e-317
3.197755e-01	7.440717e-01	3.943181e-317
3.000195e-01	8.829298e-02	3.943237e-317
6.414478e-01	3.631573e-01	3.943292e-317
1.439144e+00	9.427463e-01	3.943347e-317
8.460342e-01	9.467090e-01	3.943403e-317
1.846656e+00	6.771148e-01	3.943458e-317
1.702600e+00	7.382061e-01	3.943513e-317
6.411650e-01	9.004700e-01	3.943569e-317
1.275023e+00	2.174857e-01	3.943624e-317
9.935006e-01	6.269124e-02	3.943679e-317
2.237578e+00	9.616597e-01	3.943735e-317
2.166978e+00	1.784128e-01	3.943790e-317
6.726205e-01	6.052035e-01	3.943845e-317
2.782870e+00	2.839685e-01	3.943901e-317
1.909539e+00	8.725278e-01	3.943956e-317
1.466203e+00	2.341269e-01	3.944011e-317
1.602852e+00	8.964267e-01	3.944067e-317
1.873668e+00	4.150417e-01	3.944122e-317
1.316540e+00	4.969934e-01	3.944177e-317
2.484596e+00	2.327595e-02	3.944233e-317
2.758848e+00	4.721864e-01	3.942367e-317
1.031983e+00	7.281650e-01	3.942423e-317
2.589248e+00	7.689794e-01	3.942478e-317
2.338240e+00	3.708060e-01	3.942533e-317
1.536243e-01	5.022983e-01	3.944802e-317
2.163552e+00	3.646741e-01	3.944857e-317
2.630815e+00	1.043906e-01	3.944913e-317
9.581580e-01	2.227240e-01	3.944968e-317
2.161210e+00	6.847784e-01	3.945023e-317
1.968300e-01	9.237274e-01	3.945079e-317
5.918316e-01	5.716643e-02	3.945134e-317
1.988611e+00	1.289455e-01	3.945189e-317
2.738685e+00	6.872940e-01	3.945245e-317
1.208645e+00	3.805486e-01	3.945300e-317
1.347231e-01	7.032647e-01	3.945355e-317
1.718768e+00	2.614608e-02	3.945411e-317
1.289766e+00	8.083438e-01	3.945466e-317
1.764925e+00	9.395726e-01	3.945521e-317
1.243267e+00	2.673681e-02	3.945577e-317
2.421285e+00	6.214991e-01	3.945632e-317
4.287848e-01	4.546539e-03	3.945687e-317
1.364723e+00	6.776846e-01	3.945743e-317
7.565039e-01	4.728845e-01	3.945798e-317
1.488430e-01	4.858341e-02	3.945853e-317
1.358732e+00	3.471320e-01	3.945909e-317
1.751509e+00	5.166717e-01	3.945964e-317
7.040988e-01	1.813356e-01	3.946019e-317
2.322186e+00	5.084232e-02	3.946075e-317
7.031111e-01	7.549152e-01	3.946130e-317
2.437878e+00	8.444180e-01	3.946185e-317
2.989993e+00	1.836249e-01	3.946241e-317
3.000000e+00	1.000000e+00	3.932802e-317
3.000000e+00	1.000000e+00	3.932486e-317
0.000000e+00	3.579350e-01	3.932541e-317
3.000000e+00	6.408367e-01	3.932597e-317
3.000000e+00	7.891636e-01	3.930280e-317
3.000000e+00	3.497217e-01	3.930336e-317
2.484596e+00	0.000000e+00	3.930391e-317
2.166103e+00	0.000000e+00	3.937869e-317
2.322186e+00	0.000000e+00	3.937925e-317
1.164589e+00	1.000000e+00	3.937980e-317
2.097880e+00	1.000000e+00	3.938035e-317
2.495261e+00	1.000000e+00	3.938091e-317
2.745216e+00	1.000000e+00	3.938146e-317
2.237578e+00	1.000000e+00	3.938201e-317
0.000000e+00	1.000000e+00	3.938257e-317
0.000000e+00	7.032647e-01	3.938312e-317
0.000000e+00	8.263091e-01	3.938367e-317
0.000000e+00	5.339704e-01	3.938423e-317
1.968300e-01	1.000000e+00	3.938478e-317
3.869720e-01	1.000000e+00	3.938533e-317
1.000000e-08	1.000000e+00	3.938984e-317
8.460342e-01	1.000000e+00	3.939039e-317
1.011335e+00	1.000000e+00	3.939094e-317
6.411650e-01	1.000000e+00	3.939150e-317
4.287848e-01	0.000000e+00	3.939205e-317
3.000195e-01	0.000000e+00	3.939260e-317
0.000000e+00	1.000000e-08	3.939316e-317
1.000000e-08	0.000000e+00	3.939371e-317
1.488430e-01	0.000000e+00	3.939426e-317
0.000000e+00	2.055245e-01	3.939482e-317
3.000000e+00	1.836249e-01	3.939537e-317
1.718768e+00	0.000000e+00	3.939593e-317
1.988611e+00	0.000000e+00	3.939648e-317
1.434778e+00	0.000000e+00	3.944288e-317
1.581158e+00	0.000000e+00	3.944343e-317
1.764925e+00	1.000000e+00	3.944399e-317
1.602852e+00	1.000000e+00	3.944454e-317
1.439144e+00	1.000000e+00	3.944509e-317
5.918316e-01	0.000000e+00	3.944565e-317
1.909539e+00	1.000000e+00	3.944620e-317
2.882833e+00	0.000000e+00	3.944675e-317
3.000000e+00	7.399784e-02	3.944731e-317
2.630815e+00	0.000000e+00	3.940723e-317
9.935006e-01	0.000000e+00	3.940778e-317
1.243267e+00	0.000000e+00	3.940834e-317
7.585456e-01	0.000000e+00	3.940889e-317
3.000000e+00	1.000000e+00	3.932170e-317
2.860001e+00	1.000000e+00	3.932312e-317
3.000000e+00	8.542849e-01	3.932367e-317
2.883105e+00	9.265576e-01	3.932423e-317
2.753592e+00	8.032449e-01	3.941221e-317
2.829487e+00	7.056762e-01	3.941276e-317
2.705756e+00	8.045884e-01	3.941332e-317
2.697945e+00	5.749764e-01	3.941387e-317
2.637244e+00	6.792504e-01	3.941442e-317
2.793455e+00	5.839291e-01	3.941498e-317
-4.100000e-11	2.817298e-01	3.941553e-317
-0.000000e+00	4.459527e-01	3.941608e-317
3.000000e+00	7.355800e-01	3.941664e-317
3.000000e+00	5.119523e-01	3.941719e-317
2.909120e+00	4.901003e-01	3.941774e-317
3.000000e+00	2.699221e-01	3.941830e-317
2.848665e+00	3.880079e-01	3.950351e-317
2.896593e+00	2.547720e-01	3.950407e-317
1.163313e-01	2.817298e-01	3.950462e-317
1.378193e-01	3.651959e-01	3.950517e-317
1.458953e-01	1.948397e-01	3.950573e-317
1.970865e-01	1.725410e-01	3.950628e-317
3.839245e-01	2.137751e-01	3.950683e-317
2.549822e-01	4.217518e-01	3.950739e-317
3.309899e-01	4.009522e-01	3.950794e-317
4.029576e-01	3.013694e-01	3.950849e-317
6.193074e-02	4.459527e-01	3.950905e-317
2.397101e+00	0.000000e+00	3.950960e-317
2.593117e+00	-0.000000e+00	3.951015e-317
2.091839e+00	1.030378e-01	3.951071e-317
2.032542e+00	0.000000e+00	3.951126e-317
2.250124e+00	-0.000000e+00	3.951181e-317
2.234380e+00	1.022155e-01	3.951237e-317
1.050849e+00	6.019476e-01	3.951292e-317
9.444044e-01	6.690559e-01	3.951347e-317
1.086861e+00	6.079414e-01	3.951403e-317
9.473696e-01	7.969763e-01	3.951458e-317
1.103820e+00	8.175324e-01	3.951513e-317
1.134859e+00	7.954746e-01	3.951569e-317
1.068749e+00	1.000000e+00	3.951624e-317
1.294606e+00	1.000000e+00	3.951679e-317
1.299987e+00	9.471964e-01	3.951735e-317
1.175243e+00	8.004679e-01	3.951790e-317
1.068889e+00	3.267564e-01	3.951845e-317
1.193877e+00	5.024407e-01	3.951901e-317
9.731195e-01	4.740112e-01	3.951956e-317
1.189862e+00	5.498033e-01	3.952011e-317
2.015831e+00	1.000000e+00	3.952067e-317
2.098489e+00	1.000000e+00	3.952122e-317
2.632947e+00	1.000000e+00	3.952177e-317
2.363706e+00	1.000000e+00	3.952233e-317
2.606365e+00	9.073388e-01	3.952288e-317
2.552353e+00	8.845313e-01	3.952343e-317
2.368797e+00	9.561178e-01	3.952399e-317
0.000000e+00	1.000000e+00	3.952454e-317
0.000000e+00	9.131546e-01	3.952509e-317
2.102005e-01	8.009813e-01	3.952565e-317
1.228841e-01	8.255793e-01	3.952620e-317
2.460924e-01	6.382186e-01	3.952675e-317
0.000000e+00	6.910318e-01	3.952731e-317
2.202561e-01	6.099372e-01	3.952786e-317
9.327659e-02	5.979946e-01	3.952841e-317
0.000000e+00	6.722234e-01	3.952897e-317
2.936287e-01	8.580745e-01	3.952952e-317
4.119626e-01	8.149722e-01	3.953007e-317
4.114722e-01	6.391135e-01	3.953063e-317
7.953995e-02	9.131546e-01	3.953118e-317
4.635109e-01	5.938900e-01	3.953173e-317
2.900262e-01	1.000000e+00	3.953229e-317
1.131930e-01	1.000000e+00	3.953284e-317
5.235134e-01	1.000000e+00	3.953339e-317
5.099017e-01	8.767976e-01	3.953395e-317
6.006947e-01	7.972873e-01	3.953450e-317
6.064278e-01	6.966452e-01	3.953505e-317
5.158047e-01	5.860363e-01	3.953561e-317
9.013868e-01	8.425166e-01	3.953616e-317
9.598823e-01	1.000000e+00	3.953671e-317
7.263538e-01	1.000000e+00	3.953727e-317
7.947887e-01	8.357473e-01	3.953782e-317
7.570840e-01	8.638445e-01	3.953837e-317
8.049507e-01	6.115029e-01	3.953893e-317
7.697341e-01	6.633859e-01	3.953948e-317
4.272800e-01	1.430984e-01	3.954003e-317
3.342116e-01	0.000000e+00	3.954059e-317
5.202665e-01	0.000000e+00	3.954114e-317
4.822926e-01	1.176649e-01	3.954169e-317
2.424079e-01	-0.000000e+00	3.954225e-317
4.880813e-02	1.027623e-01	3.954280e-317
8.235047e-02	0.000000e+00	3.954335e-317
0.000000e+00	1.027623e-01	3.954391e-317
0.000000e+00	0.000000e+00	3.954446e-317
2.867978e+00	1.957060e-01	3.954501e-317
3.000000e+00	6.665571e-02	3.954557e-317
2.417675e+00	1.212134e-01	3.954612e-317
2.264550e+00	1.389221e-01	3.954667e-317
2.513635e+00	6.857084e-01	3.954723e-317
2.475123e+00	7.295686e-01	3.954778e-317
1.879986e+00	8.520063e-03	3.954833e-317
1.883232e+00	-0.000000e+00	3.954889e-317
1.617860e+00	0.000000e+00	3.954944e-317
1.694903e+00	1.484457e-01	3.954999e-317
1.526167e+00	0.000000e+00	3.955055e-317
1.348099e+00	0.000000e+00	3.955110e-317
1.173464e+00	2.711861e-01	3.955165e-317
1.271989e+00	3.112923e-01	3.955221e-317
1.074571e+00	3.156515e-01	3.955276e-317
1.068872e+00	3.246964e-01	3.955331e-317
1.293911e+00	4.097522e-01	3.955387e-317
1.880788e+00	1.000000e+00	3.955442e-317
1.662059e+00	1.000000e+00	3.955497e-317
1.797019e+00	8.193110e-01	3.955553e-317
1.702361e+00	8.486083e-01	3.955608e-317
1.543750e+00	1.000000e+00	3.955663e-317
1.578570e+00	7.705654e-01	3.955719e-317
1.488126e+00	8.034062e-01	3.955774e-317
6.874942e-01	8.351095e-02	3.939703e-317
6.047077e-01	1.583622e-01	3.939759e-317
6.659964e-01	0.000000e+00	3.939814e-317
5.272998e-01	3.468315e-01	3.939869e-317
5.877783e-01	4.930997e-01	3.939925e-317
6.344911e-01	2.590554e-01	3.939980e-317
8.422223e-01	1.339310e-01	3.940035e-317
8.379619e-01	1.600830e-01	3.940091e-317
7.071065e-01	2.840768e-01	3.940146e-317
8.668290e-01	4.732955e-01	3.940201e-317
8.022767e-01	5.946505e-01	3.940257e-317
8.265056e-01	3.955389e-01	3.940312e-317
6.329185e-01	4.872862e-01	3.940367e-317
7.436593e-01	3.711674e-01	3.940423e-317
9.015617e-01	2.953385e-01	3.940478e-317
3.000000e+00	0.000000e+00	3.940533e-317
2.746068e+00	0.000000e+00	3.940589e-317
2.763681e+00	1.460524e-01	3.940644e-317
1.118592e+00	4.616182e-02	3.957861e-317
1.111947e+00	0.000000e+00	3.957916e-317
1.022258e+00	1.529612e-01	3.957972e-317
8.839547e-01	0.000000e+00	3.958027e-317
8.598148e-01	1.170863e-01	3.958082e-317
1.213419e+00	1.297235e-01	3.958138e-317
1.326079e+00	1.109684e-01	3.958193e-317
2.494584e+00	1.776185e-01	3.958248e-317
2.632764e+00	2.569045e-01	3.958304e-317
2.491690e+00	1.777639e-01	3.958359e-317
2.405029e+00	2.922041e-01	3.958414e-317
2.448274e+00	4.734572e-01	3.958470e-317
2.650814e+00	3.627559e-01	3.958525e-317
2.607322e+00	4.431352e-01	3.958580e-317
2.479674e+00	4.820125e-01	3.958636e-317
2.239026e+00	2.729000e-01	3.958691e-317
2.253632e+00	2.898006e-01	3.958746e-317
1.494486e+00	1.412712e-01	3.958802e-317
1.376059e+00	1.632419e-01	3.958857e-317
1.681108e+00	2.020224e-01	3.958912e-317
1.604448e+00	2.338359e-01	3.958968e-317
1.368601e+00	2.489118e-01	3.959023e-317
1.452293e+00	4.543437e-01	3.959078e-317
1.501933e+00	3.757133e-01	3.959134e-317
1.453513e+00	5.318809e-01	3.959189e-317
1.644796e+00	6.159920e-01	3.959244e-317
1.540939e+00	3.571407e-01	3.959300e-317
1.678940e+00	4.470015e-01	3.959355e-317
1.654637e+00	6.114512e-01	3.959410e-317
1.810273e+00	2.946251e-01	3.959466e-317
1.767782e+00	4.119998e-01	3.959521e-317
1.881126e+00	5.482390e-01	3.959576e-317
1.742008e+00	6.307401e-01	3.959632e-317
1.812114e+00	7.960545e-01	3.959687e-317
1.274536e+00	6.049641e-01	3.959742e-317
1.427411e+00	5.641980e-01	3.959798e-317
1.280575e+00	7.162407e-01	3.959853e-317
1.456658e+00	7.948506e-01	3.959908e-317
1.430435e+00	8.022132e-01	3.959964e-317
2.064354e+00	2.021422e-01	3.960019e-317
2.118005e+00	2.706742e-01	3.960074e-317
1.918432e+00	2.266555e-01	3.960130e-317
1.881811e+00	2.793828e-01	3.960185e-317
2.321691e+00	8.756405e-01	3.960240e-317
2.424534e+00	7.333343e-01	3.960296e-317
2.221330e+00	8.380073e-01	3.960351e-317
2.380770e+00	4.958187e-01	3.960407e-317
2.320782e+00	6.509593e-01	3.960462e-317
2.248157e+00	4.457628e-01	3.960517e-317
2.000389e+00	8.269083e-01	3.960573e-317
1.901361e+00	7.673353e-01	3.960628e-317
2.202528e+00	7.972898e-01	3.960683e-317
2.263258e+00	6.653810e-01	3.960739e-317
2.092451e+00	7.565093e-01	3.960794e-317
1.905684e+00	5.507702e-01	3.960849e-317
1.952742e+00	6.057305e-01	3.960905e-317
1.988930e+00	4.081529e-01	3.960960e-317
2.060200e+00	6.266249e-01	3.961015e-317
2.146537e+00	5.658964e-01	3.961071e-317
2.057173e+00	4.009040e-01	3.961126e-317
2.163139e+00	4.901084e-01	3.961181e-317
</DataArray>
</Points>
<Cells>
<DataArray type="Int32" Name="connectivity" format="ascii">
	6	43
	6	15
	77	43
	77	15
	77	32
	77	65
	77	19
	77	67
	19	38
	19	43
	19	65
	43	15
	38	58
	38	65
	38	95
	24	2
	24	3
	24	88
	24	46
	24	69
	24	34
	24	12
	24	30
	2	3
	2	5
	2	69
	28	76
	28	56
	28	92
	66	29
	66	23
	66	42
	66	16
	66	18
	66	8
	18	16
	18	48
	18	81
	18	8
	23	78
	23	40
	23	29
	23	8
	23	63
	7	67
	7	15
	7	55
	7	94
	15	67
	79	74
	79	45
	79	4
	79	34
	79	69
	79	5
	45	74
	45	37
	45	14
	45	34
	4	1
	4	74
	34	14
	34	12
	34	69
	69	5
	74	37
	74	1
	37	52
	37	14
	14	52
	14	93
	14	12
	14	57
	49	16
	49	42
	49	52
	49	93
	16	42
	42	29
	42	57
	42	93
	52	93
	93	57
	85	46
	85	30
	85	75
	46	88
	46	30
	0	88
	0	3
	88	3
	95	58
	95	26
	92	64
	92	56
	92	35
	67	32
	67	94
	67	84
	80	76
	80	21
	80	27
	78	53
	78	9
	78	72
	78	40
	78	63
	78	89
	82	59
	82	51
	82	61
	61	51
	61	48
	61	36
	75	91
	75	31
	75	30
	12	30
	12	57
	12	47
	30	91
	30	47
	91	31
	91	72
	91	17
	91	47
	87	29
	87	40
	87	57
	87	47
	87	17
	29	40
	29	57
	40	72
	40	17
	57	47
	47	17
	17	72
	26	71
	26	58
	54	83
	54	9
	54	72
	54	31
	83	53
	83	9
	83	44
	9	53
	9	72
	72	31
	13	71
	13	64
	13	35
	13	68
	13	58
	13	65
	13	32
	13	84
	71	64
	71	58
	64	35
	35	56
	35	70
	35	68
	58	65
	65	32
	32	84
	44	27
	44	53
	44	60
	27	21
	27	25
	27	60
	53	89
	53	60
	10	89
	10	63
	10	36
	10	60
	10	25
	10	90
	10	51
	89	63
	89	60
	60	25
	25	21
	25	62
	25	90
	90	62
	90	50
	90	51
	51	59
	51	36
	51	50
	86	63
	86	8
	86	36
	86	81
	86	48
	63	8
	63	36
	8	81
	36	48
	81	48
	56	76
	56	70
	56	39
	76	21
	76	39
	21	62
	21	39
	94	55
	94	84
	94	41
	55	33
	55	41
	84	68
	84	41
	84	22
	68	70
	68	22
	59	33
	59	50
	59	20
	41	33
	41	22
	41	73
	33	20
	33	73
	11	50
	11	62
	11	20
	11	73
	11	39
	11	70
	11	22
	50	62
	50	20
	62	39
	20	73
	73	22
	39	70
	70	22
</DataArray>
<DataArray type="Int32" Name="offsets" format="ascii">
2
4
6
8
10
12
14
16
18
20
22
24
26
28
30
32
34
36
38
40
42
44
46
48
50
52
54
56
58
60
62
64
66
68
70
72
74
76
78
80
82
84
86
88
90
92
94
96
98
100
102
104
106
108
110
112
114
116
118
120
122
124
126
128
130
132
134
136
138
140
142
144
146
148
150
152
154
156
158
160
162
164
166
168
170
172
174
176
178
180
182
184
186
188
190
192
194
196
198
200
202
204
206
208
210
212
214
216
218
220
222
224
226
228
230
232
234
236
238
240
242
244
246
248
250
252
254
256
258
260
262
264
266
268
270
272
274
276
278
280
282
284
286
288
290
292
294
296
298
300
302
304
306
308
310
312
314
316
318
320
322
324
326
328
330
332
334
336
338
340
342
344
346
348
350
352
354
356
358
360
362
364
366
368
370
372
374
376
378
380
382
384
386
388
390
392
394
396
398
400
402
404
406
408
410
412
414
416
418
420
422
424
426
428
430
432
434
436
438
440
442
444
446
448
450
452
454
456
458
460
462
464
466
468
470
472
474
476
478
480
482
484
486
</DataArray>
<DataArray type="UInt8" Name="types" format="ascii">
3
3
3
3
3
3
3
3
3
3
3
3
3
3
3
3
3
3
3
3
3
3
3
3
3
3
3
3
3
3
3
3
3
3
3
3
3
3
3
3
3
3
3
3
3
3
3
3
3
3
3
3
3
3
3
3
3
3
3
3
3
3
3
3
3
3
3
3
3
3
3
3
3
3
3
3
3
3
3
3
3
3
3
3
3
3
3
3
3
3
3
3
3
3
3
3
3
3
3
3
3
3
3
3
3
3
3
3
3
3
3
3
3
3
3
3
3
3
3
3
3
3
3
3
3
3
3
3
3
3
3
3
3
3
3
3
3
3
3
3
3
3
3
3
3
3
3
3
3
3
3
3
3
3
3
3
3
3
3
3
3
3
3
3
3
3
3
3
3
3
3
3
3
3
3
3
3
3
3
3
3
3
3
3
3
3
3
3
3
3
3
3
3
3
3
3
3
3
3
3
3
3
3
3
3
3
3
3
3
3
3
3
3
3
3
3
3
3
3
3
3
3
3
3
3
3
3
3
3
3
3
3
3
3
3
3
3
3
3
3
3
3
3
</DataArray>
</Cells>
<PointData Scalars="scalars">
<DataArray type="Float32" Name="displacement" NumberOfComponents="3" format="ascii">
0.000000e+00	0.000000e+00	0.000000e+00
0.000000e+00	0.000000e+00	0.000000e+00
0.000000e+00	0.000000e+00	0.000000e+00
0.000000e+00	0.000000e+00	0.000000e+00
0.000000e+00	0.000000e+00	0.000000e+00
0.000000e+00	0.000000e+00	0.000000e+00
4.171379e-04	-1.600000e-03	-1.069550e-03
3.729261e-04	-1.196354e-03	-6.886491e-04
1.267660e-04	-3.756454e-04	-4.855696e-04
-1.167544e-04	-3.385047e-04	-4.972795e-04
3.415388e-05	-5.960001e-04	-5.656200e-04
4.547807e-05	-8.822862e-04	-6.576715e-04
8.542375e-06	-6.619591e-05	-2.466181e-04
-7.337488e-05	-1.199720e-03	-6.700266e-04
9.770421e-05	-8.816822e-05	-3.074336e-04
3.297559e-04	-1.373002e-03	-7.451742e-04
2.116251e-04	-2.893224e-04	-4.719891e-04
-4.605174e-05	-1.940309e-04	-3.742291e-04
2.366131e-04	-3.686242e-04	-5.176999e-04
1.303975e-04	-1.481629e-03	-6.764957e-04
1.783932e-04	-8.554457e-04	-6.436894e-04
-1.694368e-04	-7.400534e-04	-6.167617e-04
7.729248e-05	-1.035352e-03	-6.735429e-04
2.581298e-05	-3.156941e-04	-4.637712e-04
-1.402286e-05	-2.128492e-05	-1.499922e-04
-5.085566e-05	-6.547530e-04	-6.197193e-04
-2.499968e-04	-1.465412e-03	-6.890531e-04
-1.884079e-04	-5.948109e-04	-5.466343e-04
-2.687278e-04	-9.692277e-04	-6.555961e-04
6.292036e-05	-2.486822e-04	-4.495239e-04
-4.518343e-05	-9.146796e-05	-2.951802e-04
-1.472565e-04	-1.837665e-04	-3.270016e-04
1.000562e-04	-1.255215e-03	-6.933436e-04
2.647661e-04	-9.219857e-04	-6.404908e-04
2.218743e-05	-3.503238e-05	-2.227660e-04
-1.506571e-04	-1.088235e-03	-7.008603e-04
1.228944e-04	-5.549545e-04	-5.652256e-04
1.385635e-04	-5.842048e-05	-3.976093e-04
-6.362284e-05	-1.523151e-03	-6.710731e-04
-9.067447e-05	-8.678513e-04	-6.521865e-04
-1.473563e-05	-2.468458e-04	-4.620684e-04
2.058193e-04	-1.069850e-03	-6.784302e-04
1.301336e-04	-2.196254e-04	-4.478774e-04
2.305681e-04	-1.467051e-03	-7.401045e-04
-1.972867e-04	-5.122863e-04	-5.954743e-04
6.355533e-05	-3.451016e-05	-1.930752e-04
-4.888098e-05	-2.810365e-05	-1.832769e-04
-1.429853e-05	-1.263338e-04	-3.351496e-04
2.806657e-04	-5.166368e-04	-5.345055e-04
2.275517e-04	-2.177584e-04	-4.551694e-04
1.440572e-04	-7.568028e-04	-5.943252e-04
1.762792e-04	-6.696017e-04	-6.169302e-04
1.635045e-04	-1.366669e-04	-2.447355e-04
-1.046256e-04	-4.213215e-04	-5.497870e-04
-1.564465e-04	-2.818668e-04	-5.403706e-04
3.421646e-04	-1.019598e-03	-7.002924e-04
-1.689066e-04	-9.685568e-04	-6.568020e-04
6.760963e-05	-1.406109e-04	-3.768641e-04
-1.075526e-04	-1.396659e-03	-6.759260e-04
2.674430e-04	-7.989740e-04	-6.630938e-04
-1.064271e-04	-5.278664e-04	-5.384503e-04
2.655839e-04	-6.091849e-04	-6.300778e-04
-1.368853e-05	-7.737689e-04	-6.100384e-04
3.539403e-05	-4.418114e-04	-5.407212e-04
-2.811890e-04	-1.190010e-03	-6.862432e-04
1.690770e-05	-1.381982e-03	-7.016838e-04
1.391133e-04	-2.989369e-04	-4.558679e-04
2.191357e-04	-1.260811e-03	-7.086977e-04
-4.622444e-05	-1.085593e-03	-6.723086e-04
8.117696e-06	-5.931627e-06	-7.270755e-05
-4.905667e-05	-9.655634e-04	-6.541562e-04
-2.280984e-04	-1.290660e-03	-6.949600e-04
-8.163572e-05	-2.606906e-04	-4.023299e-04
1.563548e-04	-9.635354e-04	-6.597672e-04
6.727714e-05	-1.968679e-05	-1.558260e-04
-1.085506e-04	-1.160567e-04	-3.732654e-04
-1.942650e-04	-8.503381e-04	-6.452119e-04
1.620139e-04	-1.369216e-03	-6.909020e-04
-2.170552e-05	-3.843846e-04	-4.997009e-04
1.832672e-05	-4.349257e-06	-8.169188e-05
-2.413454e-04	-6.816885e-04	-6.430306e-04
1.937325e-04	-4.284435e-04	-5.347395e-04
3.014311e-04	-7.116646e-04	-5.868880e-04
-2.018175e-04	-4.084343e-04	-4.803531e-04
1.179144e-04	-1.142604e-03	-6.782043e-04
-1.001169e-04	-7.225598e-05	-3.549920e-04
1.297697e-04	-4.676456e-04	-5.473620e-04
2.305109e-05	-1.709759e-04	-3.911765e-04
-3.047580e-05	-1.064829e-05	-1.243326e-04
-4.176815e-05	-4.656113e-04	-5.348481e-04
4.812553e-05	-6.973599e-04	-6.152728e-04
-7.692407e-05	-1.559352e-04	-4.232398e-04
-2.582758e-04	-1.075407e-03	-6.882588e-04
1.297289e-04	-1.531985e-04	-3.810783e-04
2.688620e-04	-1.155697e-03	-6.844801e-04
-1.752267e-04	-1.538842e-03	-6.772953e-04
0.000000e+00	0.000000e+00	0.000000e+00
0.000000e+00	0.000000e+00	0.000000e+00
0.000000e+00	0.000000e+00	0.000000e+00
0.000000e+00	0.000000e+00	0.000000e+00
0.000000e+00	0.000000e+00	0.000000e+00
0.000000e+00	0.000000e+00	0.000000e+00
0.000000e+00	0.000000e+00	0.000000e+00
0.000000e+00	0.000000e+00	0.000000e+00
0.000000e+00	0.000000e+00	0.000000e+00
0.000000e+00	0.000000e+00	0.000000e+00
0.000000e+00	0.000000e+00	0.000000e+00
0.000000e+00	0.000000e+00	0.000000e+00
0.000000e+00	0.000000e+00	0.000000e+00
0.000000e+00	0.000000e+00	0.000000e+00
0.000000e+00	0.000000e+00	0.000000e+00
0.000000e+00	0.000000e+00	0.000000e+00
0.000000e+00	0.000000e+00	0.000000e+00
0.000000e+00	0.000000e+00	0.000000e+00
0.000000e+00	0.000000e+00	0.000000e+00
0.000000e+00	0.000000e+00	0.000000e+00
0.000000e+00	0.000000e+00	0.000000e+00
0.000000e+00	0.000000e+00	0.000000e+00
0.000000e+00	0.000000e+00	0.000000e+00
0.000000e+00	0.000000e+00	0.000000e+00
0.000000e+00	0.000000e+00	0.000000e+00
0.000000e+00	0.000000e+00	0.000000e+00
0.000000e+00	0.000000e+00	0.000000e+00
0.000000e+00	0.000000e+00	0.000000e+00
0.000000e+00	0.000000e+00	0.000000e+00
0.000000e+00	0.000000e+00	0.000000e+00
0.000000e+00	0.000000e+00	0.000000e+00
0.000000e+00	0.000000e+00	0.000000e+00
0.000000e+00	0.000000e+00	0.000000e+00
0.000000e+00	0.000000e+00	0.000000e+00
0.000000e+00	0.000000e+00	0.000000e+00
0.000000e+00	0.000000e+00	0.000000e+00
0.000000e+00	0.000000e+00	0.000000e+00
0.000000e+00	0.000000e+00	0.000000e+00
0.000000e+00	0.000000e+00	0.000000e+00
0.000000e+00	0.000000e+00	0.000000e+00
0.000000e+00	0.000000e+00	0.000000e+00
0.000000e+00	0.000000e+00	0.000000e+00
0.000000e+00	0.000000e+00	0.000000e+00
0.000000e+00	0.000000e+00	0.000000e+00
0.000000e+00	0.000000e+00	0.000000e+00
0.000000e+00	0.000000e+00	0.000000e+00
0.000000e+00	0.000000e+00	0.000000e+00
0.000000e+00	0.000000e+00	0.000000e+00
0.000000e+00	0.000000e+00	0.000000e+00
0.000000e+00	0.000000e+00	0.000000e+00
0.000000e+00	0.000000e+00	0.000000e+00
0.000000e+00	0.000000e+00	0.000000e+00
0.000000e+00	0.000000e+00	0.000000e+00
0.000000e+00	0.000000e+00	0.000000e+00
0.000000e+00	0.000000e+00	0.000000e+00
0.000000e+00	0.000000e+00	0.000000e+00
0.000000e+00	0.000000e+00	0.000000e+00
0.000000e+00	0.000000e+00	0.000000e+00
0.000000e+00	0.000000e+00	0.000000e+00
0.000000e+00	0.000000e+00	0.000000e+00
0.000000e+00	0.000000e+00	0.000000e+00
0.000000e+00	0.000000e+00	0.000000e+00
0.000000e+00	0.000000e+00	0.000000e+00
0.000000e+00	0.000000e+00	0.000000e+00
0.000000e+00	0.000000e+00	0.000000e+00
0.000000e+00	0.000000e+00	0.000000e+00
0.000000e+00	0.000000e+00	0.000000e+00
0.000000e+00	0.000000e+00	0.000000e+00
0.000000e+00	0.000000e+00	0.000000e+00
0.000000e+00	0.000000e+00	0.000000e+00
0.000000e+00	0.000000e+00	0.000000e+00
0.000000e+00	0.000000e+00	0.000000e+00
0.000000e+00	0.000000e+00	0.000000e+00
0.000000e+00	0.000000e+00	0.000000e+00
0.000000e+00	0.000000e+00	0.000000e+00
0.000000e+00	0.000000e+00	0.000000e+00
0.000000e+00	0.000000e+00	0.000000e+00
0.000000e+00	0.000000e+00	0.000000e+00
0.000000e+00	0.000000e+00	0.000000e+00
0.000000e+00	0.000000e+00	0.000000e+00
0.000000e+00	0.000000e+00	0.000000e+00
0.000000e+00	0.000000e+00	0.000000e+00
0.000000e+00	0.000000e+00	0.000000e+00
0.000000e+00	0.000000e+00	0.000000e+00
0.000000e+00	0.000000e+00	0.000000e+00
0.000000e+00	0.000000e+00	0.000000e+00
0.000000e+00	0.000000e+00	0.000000e+00
0.000000e+00	0.000000e+00	0.000000e+00
0.000000e+00	0.000000e+00	0.000000e+00
0.000000e+00	0.000000e+00	0.000000e+00
0.000000e+00	0.000000e+00	0.000000e+00
0.000000e+00	0.000000e+00	0.000000e+00
0.000000e+00	0.000000e+00	0.000000e+00
0.000000e+00	0.000000e+00	0.000000e+00
0.000000e+00	0.000000e+00	0.000000e+00
0.000000e+00	0.000000e+00	0.000000e+00
0.000000e+00	0.000000e+00	0.000000e+00
0.000000e+00	0.000000e+00	0.000000e+00
0.000000e+00	0.000000e+00	0.000000e+00
0.000000e+00	0.000000e+00	0.000000e+00
0.000000e+00	0.000000e+00	0.000000e+00
0.000000e+00	0.000000e+00	0.000000e+00
0.000000e+00	0.000000e+00	0.000000e+00
0.000000e+00	0.000000e+00	0.000000e+00
0.000000e+00	0.000000e+00	0.000000e+00
0.000000e+00	0.000000e+00	0.000000e+00
0.000000e+00	0.000000e+00	0.000000e+00
0.000000e+00	0.000000e+00	0.000000e+00
0.000000e+00	0.000000e+00	0.000000e+00
0.000000e+00	0.000000e+00	0.000000e+00
0.000000e+00	0.000000e+00	0.000000e+00
0.000000e+00	0.000000e+00	0.000000e+00
0.000000e+00	0.000000e+00	0.000000e+00
0.000000e+00	0.000000e+00	0.000000e+00
0.000000e+00	0.000000e+00	0.000000e+00
0.000000e+00	0.000000e+00	0.000000e+00
0.000000e+00	0.000000e+00	0.000000e+00
0.000000e+00	0.000000e+00	0.000000e+00
0.000000e+00	0.000000e+00	0.000000e+00
0.000000e+00	0.000000e+00	0.000000e+00
0.000000e+00	0.000000e+00	0.000000e+00
0.000000e+00	0.000000e+00	0.000000e+00
0.000000e+00	0.000000e+00	0.000000e+00
0.000000e+00	0.000000e+00	0.000000e+00
0.000000e+00	0.000000e+00	0.000000e+00
0.000000e+00	0.000000e+00	0.000000e+00
0.000000e+00	0.000000e+00	0.000000e+00
0.000000e+00	0.000000e+00	0.000000e+00
0.000000e+00	0.000000e+00	0.000000e+00
0.000000e+00	0.000000e+00	0.000000e+00
0.000000e+00	0.000000e+00	0.000000e+00
0.000000e+00	0.000000e+00	0.000000e+00
0.000000e+00	0.000000e+00	0.000000e+00
0.000000e+00	0.000000e+00	0.000000e+00
0.000000e+00	0.000000e+00	0.000000e+00
0.000000e+00	0.000000e+00	0.000000e+00
0.000000e+00	0.000000e+00	0.000000e+00
0.000000e+00	0.000000e+00	0.000000e+00
0.000000e+00	0.000000e+00	0.000000e+00
0.000000e+00	0.000000e+00	0.000000e+00
0.000000e+00	0.000000e+00	0.000000e+00
0.000000e+00	0.000000e+00	0.000000e+00
0.000000e+00	0.000000e+00	0.000000e+00
0.000000e+00	0.000000e+00	0.000000e+00
0.000000e+00	0.000000e+00	0.000000e+00
0.000000e+00	0.000000e+00	0.000000e+00
0.000000e+00	0.000000e+00	0.000000e+00
0.000000e+00	0.000000e+00	0.000000e+00
0.000000e+00	0.000000e+00	0.000000e+00
0.000000e+00	0.000000e+00	0.000000e+00
0.000000e+00	0.000000e+00	0.000000e+00
0.000000e+00	0.000000e+00	0.000000e+00
0.000000e+00	0.000000e+00	0.000000e+00
0.000000e+00	0.000000e+00	0.000000e+00
0.000000e+00	0.000000e+00	0.000000e+00
0.000000e+00	0.000000e+00	0.000000e+00
0.000000e+00	0.000000e+00	0.000000e+00
0.000000e+00	0.000000e+00	0.000000e+00
0.000000e+00	0.000000e+00	0.000000e+00
0.000000e+00	0.000000e+00	0.000000e+00
0.000000e+00	0.000000e+00	0.000000e+00
0.000000e+00	0.000000e+00	0.000000e+00
0.000000e+00	0.000000e+00	0.000000e+00
0.000000e+00	0.000000e+00	0.000000e+00
0.000000e+00	0.000000e+00	0.000000e+00
0.000000e+00	0.000000e+00	0.000000e+00
0.000000e+00	0.000000e+00	0.000000e+00
0.000000e+00	0.000000e+00	0.000000e+00
0.000000e+00	0.000000e+00	0.000000e+00
0.000000e+00	0.000000e+00	0.000000e+00
0.000000e+00	0.000000e+00	0.000000e+00
0.000000e+00	0.000000e+00	0.000000e+00
0.000000e+00	0.000000e+00	0.000000e+00
0.000000e+00	0.000000e+00	0.000000e+00
0.000000e+00	0.000000e+00	0.000000e+00
0.000000e+00	0.000000e+00	0.000000e+00
0.000000e+00	0.000000e+00	0.000000e+00
0.000000e+00	0.000000e+00	0.000000e+00
0.000000e+00	0.000000e+00	0.000000e+00
0.000000e+00	0.000000e+00	0.000000e+00
0.000000e+00	0.000000e+00	0.000000e+00
0.000000e+00	0.000000e+00	0.000000e+00
0.000000e+00	0.000000e+00	0.000000e+00
0.000000e+00	0.000000e+00	0.000000e+00
0.000000e+00	0.000000e+00	0.000000e+00
0.000000e+00	0.000000e+00	0.000000e+00
0.000000e+00	0.000000e+00	0.000000e+00
0.000000e+00	0.000000e+00	0.000000e+00
0.000000e+00	0.000000e+00	0.000000e+00
0.000000e+00	0.000000e+00	0.000000e+00
0.000000e+00	0.000000e+00	0.000000e+00
0.000000e+00	0.000000e+00	0.000000e+00
0.000000e+00	0.000000e+00	0.000000e+00
0.000000e+00	0.000000e+00	0.000000e+00
0.000000e+00	0.000000e+00	0.000000e+00
0.000000e+00	0.000000e+00	0.000000e+00
0.000000e+00	0.000000e+00	0.000000e+00
0.000000e+00	0.000000e+00	0.000000e+00
0.000000e+00	0.000000e+00	0.000000e+00
0.000000e+00	0.000000e+00	0.000000e+00
0.000000e+00	0.000000e+00	0.000000e+00
0.000000e+00	0.000000e+00	0.000000e+00
0.000000e+00	0.000000e+00	0.000000e+00
0.000000e+00	0.000000e+00	0.000000e+00
0.000000e+00	0.000000e+00	0.000000e+00
0.000000e+00	0.000000e+00	0.000000e+00
0.000000e+00	0.000000e+00	0.000000e+00
0.000000e+00	0.000000e+00	0.000000e+00
0.000000e+00	0.000000e+00	0.000000e+00
0.000000e+00	0.000000e+00	0.000000e+00
0.000000e+00	0.000000e+00	0.000000e+00
0.000000e+00	0.000000e+00	0.000000e+00
0.000000e+00	0.000000e+00	0.000000e+00
0.000000e+00	0.000000e+00	0.000000e+00
0.000000e+00	0.000000e+00	0.000000e+00
0.000000e+00	0.000000e+00	0.000000e+00
0.000000e+00	0.000000e+00	0.000000e+00
0.000000e+00	0.000000e+00	0.000000e+00
0.000000e+00	0.000000e+00	0.000000e+00
0.000000e+00	0.000000e+00	0.000000e+00
0.000000e+00	0.000000e+00	0.000000e+00
0.000000e+00	0.000000e+00	0.000000e+00
0.000000e+00	0.000000e+00	0.000000e+00
0.000000e+00	0.000000e+00	0.000000e+00
0.000000e+00	0.000000e+00	0.000000e+00
0.000000e+00	0.000000e+00	0.000000e+00
0.000000e+00	0.000000e+00	0.000000e+00
0.000000e+00	0.000000e+00	0.000000e+00