<?xml version="1.0"?>
<VTKFile type="UnstructuredGrid" version="0.1" byte_order="LittleEndian">
<UnstructuredGrid>
<Piece NumberOfPoints="14" NumberOfCells="1">
<Points>
<DataArray type="Float32" NumberOfComponents="3" format="ascii">
5.000000e-01	5.000000e-01	3.922684e-317
1.500000e+00	5.000000e-01	3.924344e-317
0.000000e+00	5.000000e-01	3.922122e-317
5.000000e-01	0.000000e+00	3.922510e-317
5.000000e-01	1.000000e+00	3.921822e-317
2.000000e+00	5.000000e-01	3.921877e-317
1.500000e+00	1.000000e+00	3.926099e-317
1.500000e+00	0.000000e+00	3.926154e-317
0.000000e+00	0.000000e+00	3.926209e-317
0.000000e+00	1.000000e+00	3.926336e-317
1.000000e+00	0.000000e+00	3.926391e-317
1.000000e+00	1.000000e+00	3.926446e-317
2.000000e+00	1.000000e+00	3.930557e-317
2.000000e+00	0.000000e+00	3.930612e-317
</DataArray>
</Points>
<Cells>
<DataArray type="Int32" Name="connectivity" format="ascii">
	0	1
</DataArray>
<DataArray type="Int32" Name="offsets" format="ascii">
2
</DataArray>
<DataArray type="UInt8" Name="types" format="ascii">
3
</DataArray>
</Cells>
<PointData Scalars="scalars">
<DataArray type="Float32" Name="displacement" NumberOfComponents="3" format="ascii">
0.000000e+00	0.000000e+00	0.000000e+00
0.000000e+00	5.117434e-16	0.000000e+00
0.000000e+00	0.000000e+00	0.000000e+00
0.000000e+00	0.000000e+00	0.000000e+00
0.000000e+00	0.000000e+00	0.000000e+00
0.000000e+00	0.000000e+00	0.000000e+00
0.000000e+00	0.000000e+00	0.000000e+00
0.000000e+00	0.000000e+00	0.000000e+00
0.000000e+00	0.000000e+00	0.000000e+00
0.000000e+00	0.000000e+00	0.000000e+00
0.000000e+00	0.000000e+00	0.000000e+00
0.000000e+00	0.000000e+00	0.000000e+00
0.000000e+00	0.000000e+00	0.000000e+00
0.000000e+00	0.000000e+00	0.000000e+00
</DataArray>
</PointData>
<CellData Scalars="scalars">
<DataArray type="Float32" Name="damage" format="ascii">
4.031605e-03
</DataArray>
</CellData>
</Piece>
</UnstructuredGrid>
</VTKFile>
