<?xml version="1.0"?>
<VTKFile type="UnstructuredGrid" version="0.1" byte_order="LittleEndian">
<UnstructuredGrid>
<Piece NumberOfPoints="116" NumberOfCells="90">
<Points>
<DataArray type="Float32" NumberOfComponents="3" format="ascii">
7.820317e-01	1.094305e-01	4.661505e-310
7.820317e-01	1.109430e+00	4.661505e-310
4.739878e-01	1.860943e-01	4.661505e-310
4.739878e-01	1.186094e+00	4.661505e-310
5.619321e-01	4.099565e-01	4.661505e-310
2.395774e-02	5.791429e-02	4.661505e-310
1.023958e+00	5.791429e-02	4.661505e-310
2.395774e-02	1.057914e+00	4.661505e-310
1.023958e+00	1.057914e+00	4.661505e-310
6.833049e-01	9.497359e-01	4.661505e-310
3.123281e-01	9.272559e-01	4.661505e-310
4.991078e-01	6.803632e-01	4.661505e-310
1.862648e-01	2.562642e-02	4.661505e-310
1.862648e-01	1.025626e+00	4.661505e-310
9.463867e-01	7.629883e-01	4.661505e-310
4.357471e-01	8.417179e-01	4.661505e-310
2.827231e-01	2.067021e-01	4.661505e-310
1.279344e-02	4.628385e-01	4.661505e-310
1.012793e+00	4.628385e-01	4.661505e-310
9.740161e-01	2.200144e-01	4.661505e-310
2.374509e-01	5.759774e-01	4.661505e-310
7.084481e-01	7.535544e-01	4.661505e-310
8.789558e-01	5.772185e-01	4.661505e-310
1.277976e-01	8.349681e-01	4.661505e-310
1.127798e+00	8.349681e-01	4.661505e-310
3.741742e-01	3.892194e-01	4.661505e-310
1.482647e-01	2.928309e-01	4.661505e-310
1.148265e+00	2.928309e-01	4.661505e-310
5.091007e-01	9.738612e-01	4.661505e-310
9.567253e-02	6.652969e-01	4.661505e-310
1.095673e+00	6.652969e-01	4.661505e-310
6.724034e-01	5.957385e-01	4.661505e-310
3.322562e-01	6.966006e-01	4.661505e-310
8.050349e-01	4.007563e-01	4.661505e-310
8.870047e-01	9.704359e-01	4.661505e-310
6.151415e-01	2.653435e-01	4.661505e-310
6.097443e-01	1.026708e-01	4.661505e-310
6.097443e-01	1.102671e+00	4.661505e-310
4.089149e-01	5.436834e-01	4.661505e-310
3.874477e-01	6.229585e-02	4.661505e-310
3.874477e-01	1.062296e+00	4.661505e-310
1.702225e-01	4.417225e-01	4.661505e-310
1.051984e+00	7.614455e-01	2.025669e-322
6.856323e-01	4.621365e-01	2.025669e-322
8.275153e-01	2.524102e-01	2.025669e-322
6.822257e-01	3.721222e-01	2.025669e-322
7.640170e-01	2.574240e-01	2.025669e-322
9.330380e-01	3.510666e-01	2.025669e-322
1.027922e+00	3.359143e-01	2.025669e-322
1.000678e+00	8.907522e-01	2.025669e-322
1.016432e+00	9.187535e-01	2.025669e-322
8.241680e-01	8.402260e-01	2.025669e-322
7.948850e-01	8.643344e-01	2.025669e-322
6.929342e-01	1.813366e-01	2.025669e-322
2.663093e-01	3.290960e-01	2.025669e-322
1.273481e-01	1.535520e-01	2.025669e-322
1.565201e-01	1.577006e-01	2.025669e-322
5.035048e-01	8.195656e-02	2.025669e-322
5.671393e-01	1.855102e-01	2.025669e-322
3.861815e-01	2.690335e-01	2.025669e-322
5.000099e-01	3.050771e-01	2.025669e-322
4.775154e-01	3.139140e-01	2.025669e-322
9.769439e-01	6.467736e-01	2.025669e-322
1.001841e+00	5.855152e-01	2.025669e-322
8.297193e-01	7.002133e-01	2.025669e-322
7.817155e-01	6.537962e-01	2.025669e-322
7.696554e-01	5.192910e-01	2.025669e-322
8.989547e-01	4.651268e-01	2.025669e-322
9.088556e-01	1.111956e-01	2.025669e-322
9.050187e-01	9.317741e-02	2.025669e-322
1.097537e+00	1.693267e-01	2.025669e-322
8.719607e-02	9.517129e-01	2.025669e-322
6.123357e-01	6.924820e-01	2.025669e-322
7.811375e-01	9.996184e-01	2.025669e-322
6.980485e-01	1.050986e+00	2.025669e-322
9.050187e-01	1.093177e+00	2.025669e-322
6.980485e-01	5.098595e-02	2.025669e-322
8.164145e-02	3.787211e-01	2.025669e-322
1.037814e-01	5.437844e-01	2.025669e-322
1.219647e-01	5.498475e-01	2.025669e-322
2.856858e-01	4.678639e-01	2.025669e-322
2.561141e-01	3.529907e-01	2.025669e-322
8.719607e-02	-4.828710e-02	2.075076e-322
4.935075e-01	8.030256e-02	2.025669e-322
3.747884e-01	1.632919e-01	2.025669e-322
2.897207e-01	2.824547e-02	2.025669e-322
2.779114e-01	9.303594e-02	2.025669e-322
9.753680e-02	1.693267e-01	2.025669e-322
2.792176e-02	3.359143e-01	2.025669e-322
5.454429e-01	5.454972e-01	2.025669e-322
5.440362e-01	5.526173e-01	2.025669e-322
4.624291e-01	4.505086e-01	2.025669e-322
3.090885e-01	4.849967e-01	2.025669e-322
5.849629e-01	8.374301e-01	2.025669e-322
5.737663e-01	8.027977e-01	2.025669e-322
1.840711e-03	5.855152e-01	2.025669e-322
1.643150e-02	9.187535e-01	2.025669e-322
6.021674e-01	1.004868e+00	2.025669e-322
5.804208e-01	8.478398e-01	2.025669e-322
5.035048e-01	1.081957e+00	2.025669e-322
4.209678e-01	7.427968e-01	2.025669e-322
3.307842e-01	6.001893e-01	2.025669e-322
4.110032e-01	6.404037e-01	2.025669e-322
2.123316e-01	6.932886e-01	2.025669e-322
2.072019e-01	7.320571e-01	2.025669e-322
5.198429e-02	7.614455e-01	2.025669e-322
4.935075e-01	1.080303e+00	2.025669e-322
4.130361e-01	9.407561e-01	2.025669e-322
4.078826e-01	9.625148e-01	2.025669e-322
2.897207e-01	1.028245e+00	2.025669e-322
2.024264e-01	9.163764e-01	2.025669e-322
2.574643e-01	8.063273e-01	2.025669e-322
3.238423e-01	8.120622e-01	2.025669e-322
0.000000e+00	0.000000e+00	0.000000e+00
0.000000e+00	0.000000e+00	0.000000e+00
0.000000e+00	0.000000e+00	0.000000e+00
</DataArray>
</Points>
<Cells>
<DataArray type="Int32" Name="connectivity" format="ascii">
	35	33
	35	4
	35	0
	35	36
	35	2
	22	30
	22	14
	22	18
	22	21
	22	31
	22	33
	30	14
	14	24
	14	34
	14	21
	18	19
	18	33
	33	31
	33	4
	33	19
	33	0
	19	0
	19	27
	19	6
	1	34
	1	9
	34	24
	34	8
	34	21
	34	9
	36	0
	36	2
	0	6
	41	26
	41	17
	41	29
	41	20
	41	25
	39	2
	39	16
	39	12
	2	25
	2	16
	2	4
	16	26
	16	25
	16	12
	12	26
	12	5
	26	25
	26	5
	26	17
	31	4
	31	21
	31	11
	31	38
	4	25
	4	38
	25	20
	25	38
	21	9
	21	11
	21	15
	17	29
	7	23
	37	9
	37	28
	9	15
	9	28
	11	38
	11	15
	11	32
	38	20
	38	32
	20	29
	20	32
	29	32
	29	23
	3	28
	10	28
	10	15
	10	40
	10	13
	10	23
	10	32
	28	15
	28	40
	15	32
	13	23
	23	32
</DataArray>
<DataArray type="Int32" Name="offsets" format="ascii">
2
4
6
8
10
12
14
16
18
20
22
24
26
28
30
32
34
36
38
40
42
44
46
48
50
52
54
56
58
60
62
64
66
68
70
72
74
76
78
80
82
84
86
88
90
92
94
96
98
100
102
104
106
108
110
112
114
116
118
120
122
124
126
128
130
132
134
136
138
140
142
144
146
148
150
152
154
156
158
160
162
164
166
168
170
172
174
176
178
180
</DataArray>
<DataArray type="UInt8" Name="types" format="ascii">
3
3
3
3
3
3
3
3
3
3
3
3
3
3
3
3
3
3
3
3
3
3
3
3
3
3
3
3
3
3
3
3
3
3
3
3
3
3
3
3
3
3
3
3
3
3
3
3
3
3
3
3
3
3
3
3
3
3
3
3
3
3
3
3
3
3
3
3
3
3
3
3
3
3
3
3
3
3
3
3
3
3
3
3
3
3
3
3
3
3
</DataArray>
</Cells>
<PointData Scalars="scalars">
<DataArray type="Float32" Name="displacement" NumberOfComponents="3" format="ascii">
-2.250548e-05	-2.200846e-05	0.000000e+00
-3.975055e-04	-2.200846e-05	0.000000e+00
-4.527075e-05	7.779170e-06	0.000000e+00
-4.202708e-04	7.779170e-06	0.000000e+00
-1.334096e-04	-1.474694e-05	0.000000e+00
1.461590e-05	-7.243822e-06	0.000000e+00
8.381891e-06	-7.243822e-06	0.000000e+00
-3.603841e-04	-7.243822e-06	0.000000e+00
-3.666181e-04	-7.243822e-06	0.000000e+00
-3.504940e-04	-1.523806e-05	0.000000e+00
-3.199179e-04	-6.121550e-06	0.000000e+00
-2.234295e-04	-4.024125e-06	0.000000e+00
2.032662e-05	-1.530187e-05	0.000000e+00
-3.546734e-04	-1.530187e-05	0.000000e+00
-2.568465e-04	-4.010580e-06	0.000000e+00
-2.909036e-04	-4.934431e-07	0.000000e+00
-5.182717e-05	-9.094357e-06	0.000000e+00
-1.422691e-04	-1.108526e-05	0.000000e+00
-1.485031e-04	-1.108526e-05	0.000000e+00
-5.995301e-05	-1.291764e-05	0.000000e+00
-1.954744e-04	-1.303735e-06	0.000000e+00
-2.497687e-04	-7.796512e-06	0.000000e+00
-1.891522e-04	-1.706552e-05	0.000000e+00
-2.803855e-04	-9.060630e-06	0.000000e+00
-2.866196e-04	-9.060630e-06	0.000000e+00
-1.247236e-04	-3.248714e-06	0.000000e+00
-6.981776e-05	-1.296523e-05	0.000000e+00
-7.605176e-05	-1.296523e-05	0.000000e+00
-3.544567e-04	6.111295e-06	0.000000e+00
-2.189828e-04	-6.489512e-06	0.000000e+00
-2.252168e-04	-6.489512e-06	0.000000e+00
-1.922048e-04	-9.460054e-06	0.000000e+00
-2.321870e-04	-2.874498e-06	0.000000e+00
-1.243790e-04	-2.046246e-05	0.000000e+00
-3.480407e-04	-1.223353e-05	0.000000e+00
-7.912056e-05	-4.038626e-06	0.000000e+00
-1.901286e-05	-1.218361e-06	0.000000e+00
-3.940129e-04	-1.218361e-06	0.000000e+00
-1.783620e-04	-3.323764e-06	0.000000e+00
0.000000e+00	0.000000e+00	0.000000e+00
-3.750000e-04	0.000000e+00	0.000000e+00
-1.383763e-04	-1.216565e-05	0.000000e+00
0.000000e+00	0.000000e+00	0.000000e+00
0.000000e+00	0.000000e+00	0.000000e+00
0.000000e+00	0.000000e+00	0.000000e+00
0.000000e+00	0.000000e+00	0.000000e+00
0.000000e+00	0.000000e+00	0.000000e+00
0.000000e+00	0.000000e+00	0.000000e+00
0.000000e+00	0.000000e+00	0.000000e+00
0.000000e+00	0.000000e+00	0.000000e+00
0.000000e+00	0.000000e+00	0.000000e+00
0.000000e+00	0.000000e+00	0.000000e+00
0.000000e+00	0.000000e+00	0.000000e+00
0.000000e+00	0.000000e+00	0.000000e+00
0.000000e+00	0.000000e+00	0.000000e+00
0.000000e+00	0.000000e+00	0.000000e+00
0.000000e+00	0.000000e+00	0.000000e+00
0.000000e+00	0.000000e+00	0.000000e+00
0.000000e+00	0.000000e+00	0.000000e+00
0.000000e+00	0.000000e+00	0.000000e+00
0.000000e+00	0.000000e+00	0.000000e+00
0.000000e+00	0.000000e+00	0.000000e+00
0.000000e+00	0.000000e+00	0.000000e+00
0.000000e+00	0.000000e+00	0.000000e+00
0.000000e+00	0.000000e+00	0.000000e+00
0.000000e+00	0.000000e+00	0.000000e+00
0.000000e+00	0.000000e+00	0.000000e+00
0.000000e+00	0.000000e+00	0.000000e+00
0.000000e+00	0.000000e+00	0.000000e+00
0.000000e+00	0.000000e+00	0.000000e+00
0.000000e+00	0.000000e+00	0.000000e+00
0.000000e+00	0.000000e+00	0.000000e+00
0.000000e+00	0.000000e+00	0.000000e+00
0.000000e+00	0.000000e+00	0.000000e+00
0.000000e+00	0.000000e+00	0.000000e+00
0.000000e+00	0.000000e+00	0.000000e+00
0.000000e+00	0.000000e+00	0.000000e+00
0.000000e+00	0.000000e+00	0.000000e+00
0.000000e+00	0.000000e+00	0.000000e+00
0.000000e+00	0.000000e+00	0.000000e+00
0.000000e+00	0.000000e+00	0.000000e+00
0.000000e+00	0.000000e+00	0.000000e+00
0.000000e+00	0.000000e+00	0.000000e+00
0.000000e+00	0.000000e+00	0.000000e+00
0.000000e+00	0.000000e+00	0.000000e+00
0.000000e+00	0.000000e+00	0.000000e+00
0.000000e+00	0.000000e+00	0.000000e+00
0.000000e+00	0.000000e+00	0.000000e+00
0.000000e+00	0.000000e+00	0.000000e+00
0.000000e+00	0.000000e+00	0.000000e+00
0.000000e+00	0.000000e+00	0.000000e+00
0.000000e+00	0.000000e+00	0.000000e+00
0.000000e+00	0.000000e+00	0.000000e+00
0.000000e+00	0.000000e+00	0.000000e+00
0.000000e+00	0.000000e+00	0.000000e+00
0.000000e+00	0.000000e+00	0.000000e+00
0.000000e+00	0.000000e+00	0.000000e+00
0.000000e+00	0.000000e+00	0.000000e+00
0.000000e+00	0.000000e+00	0.000000e+00
0.000000e+00	0.000000e+00	0.000000e+00
0.000000e+00	0.000000e+00	0.000000e+00
0.000000e+00	0.000000e+00	0.000000e+00
0.000000e+00	0.000000e+00	0.000000e+00
0.000000e+00	0.000000e+00	0.000000e+00
0.000000e+00	0.000000e+00	0.000000e+00
0.000000e+00	0.000000e+00	0.000000e+00
0.000000e+00	0.000000e+00	0.000000e+00
0.000000e+00	0.000000e+00	0.000000e+00
0.000000e+00	0.000000e+00	0.000000e+00
0.000000e+00	0.000000e+00	0.000000e+00
0.000000e+00	0.000000e+00	0.000000e+00
0.000000e+00	0.000000e+00	0.000000e+00
0.000000e+00	0.000000e+00	0.000000e+00
0.000000e+00	0.000000e+00	0.000000e+00
0.000000e+00	0.000000e+00	0.000000e+00
0.000000e+00	0.000000e+00	0.000000e+00
</DataArray>
</PointData>
<CellData Scalars="scalars">
</CellData>
</Piece>
</UnstructuredGrid>
</VTKFile>
