<?xml version="1.0"?>
<VTKFile type="UnstructuredGrid" version="0.1" byte_order="LittleEndian">
<UnstructuredGrid>
<Piece NumberOfPoints="807" NumberOfCells="735">
<Points>
<DataArray type="Float32" NumberOfComponents="3" format="ascii">
2.219932e-01	8.707323e-01	0.000000e+00
2.067192e-01	9.186109e-01	0.000000e+00
4.884112e-01	6.117439e-01	0.000000e+00
7.659079e-01	5.184180e-01	0.000000e+00
2.968005e-01	1.877212e-01	0.000000e+00
8.074127e-02	7.384403e-01	0.000000e+00
4.413092e-01	1.583099e-01	0.000000e+00
8.799370e-01	2.740865e-01	0.000000e+00
4.142350e-01	2.960799e-01	0.000000e+00
6.287879e-01	5.798378e-01	0.000000e+00
5.999292e-01	2.658191e-01	0.000000e+00
2.846859e-01	2.535882e-01	0.000000e+00
3.275639e-01	1.441643e-01	0.000000e+00
1.656129e-01	9.639305e-01	0.000000e+00
9.602267e-01	1.884147e-01	0.000000e+00
2.430656e-02	2.045555e-01	0.000000e+00
1.024307e+00	2.045555e-01	0.000000e+00
6.998436e-01	7.795146e-01	0.000000e+00
2.293309e-02	5.776629e-01	0.000000e+00
1.022933e+00	5.776629e-01	0.000000e+00
1.642173e-03	5.154726e-01	0.000000e+00
1.001642e+00	5.154726e-01	0.000000e+00
6.397952e-01	9.856244e-01	0.000000e+00
2.590976e-01	8.024969e-01	0.000000e+00
8.704831e-01	9.227496e-01	0.000000e+00
9.814687e-01	3.989448e-01	0.000000e+00
8.137325e-01	5.464565e-01	0.000000e+00
2.911156e-02	8.652569e-02	0.000000e+00
1.029112e+00	8.652569e-02	0.000000e+00
1.114538e-01	2.512451e-01	0.000000e+00
9.649153e-01	6.317661e-01	0.000000e+00
6.353562e-01	8.119024e-01	0.000000e+00
9.266826e-01	9.126268e-01	0.000000e+00
8.248107e-01	9.420273e-02	0.000000e+00
3.610484e-01	3.550903e-02	0.000000e+00
3.610484e-01	1.035509e+00	0.000000e+00
5.463583e-01	7.961427e-01	0.000000e+00
3.654778e-01	2.442909e-01	0.000000e+00
7.950875e-01	3.520949e-01	0.000000e+00
6.388777e-01	4.934151e-01	0.000000e+00
5.834997e-01	9.392994e-01	0.000000e+00
9.435401e-01	1.116924e-01	0.000000e+00
1.008273e-01	3.834091e-01	0.000000e+00
5.103548e-01	9.611031e-01	0.000000e+00
4.783390e-01	8.499800e-01	0.000000e+00
5.147380e-01	4.466078e-01	0.000000e+00
8.004764e-01	2.039138e-02	0.000000e+00
8.004764e-01	1.020391e+00	0.000000e+00
5.726186e-01	4.113836e-01	0.000000e+00
9.851368e-01	8.014015e-01	0.000000e+00
4.524188e-01	7.029421e-01	0.000000e+00
3.320481e-01	3.599832e-01	0.000000e+00
4.076857e-01	8.985712e-01	0.000000e+00
3.302533e-01	8.273857e-02	0.000000e+00
5.267176e-01	6.608444e-01	0.000000e+00
7.699327e-01	7.590991e-01	0.000000e+00
7.100490e-01	7.015528e-01	0.000000e+00
7.673314e-01	9.743495e-01	0.000000e+00
2.396404e-01	2.214828e-01	0.000000e+00
3.635998e-01	8.103142e-01	0.000000e+00
6.009617e-02	4.497436e-01	0.000000e+00
8.131705e-01	2.642384e-01	0.000000e+00
8.507046e-02	8.077774e-01	0.000000e+00
1.085070e+00	8.077774e-01	0.000000e+00
1.702501e-01	1.953446e-01	0.000000e+00
8.146420e-01	8.102855e-01	0.000000e+00
5.982164e-02	9.649966e-01	0.000000e+00
1.059822e+00	9.649966e-01	0.000000e+00
8.257058e-01	6.594173e-01	0.000000e+00
5.809185e-01	4.728282e-01	0.000000e+00
6.522708e-01	2.418591e-01	0.000000e+00
4.593456e-01	4.186541e-01	0.000000e+00
4.966955e-01	2.111410e-01	0.000000e+00
6.039841e-01	7.485758e-01	0.000000e+00
2.184978e-01	4.256373e-01	0.000000e+00
3.653330e-01	4.779413e-01	0.000000e+00
5.420904e-01	2.652302e-01	0.000000e+00
1.343637e-01	3.018861e-01	0.000000e+00
6.791827e-01	6.013412e-01	0.000000e+00
2.456310e-01	7.126598e-02	0.000000e+00
1.656418e-01	6.036643e-02	0.000000e+00
1.656418e-01	1.060366e+00	0.000000e+00
2.781559e-01	3.483320e-01	0.000000e+00
6.247545e-01	1.596809e-01	0.000000e+00
8.937627e-01	7.305913e-01	0.000000e+00
7.703294e-01	1.814812e-01	0.000000e+00
1.197690e-01	9.303418e-01	0.000000e+00
1.547451e-01	4.070790e-01	0.000000e+00
1.611325e-01	7.392507e-01	0.000000e+00
3.383386e-01	7.427507e-01	0.000000e+00
6.337165e-01	8.889285e-01	0.000000e+00
7.139591e-01	2.651127e-01	0.000000e+00
1.906563e-01	6.342143e-01	0.000000e+00
9.385529e-01	2.581864e-01	0.000000e+00
2.924805e-01	4.256440e-01	0.000000e+00
5.711786e-01	9.900556e-01	0.000000e+00
6.689134e-01	3.714049e-01	0.000000e+00
2.065027e-01	3.307044e-01	0.000000e+00
8.112160e-01	4.457925e-01	0.000000e+00
4.473102e-01	2.752846e-02	0.000000e+00
4.473102e-01	1.027528e+00	0.000000e+00
4.773838e-02	8.635856e-01	0.000000e+00
1.047738e+00	8.635856e-01	0.000000e+00
7.143176e-01	8.304377e-01	0.000000e+00
9.132175e-01	4.333879e-01	0.000000e+00
5.831126e-01	3.488276e-01	0.000000e+00
6.881641e-02	5.254495e-01	0.000000e+00
2.748344e-01	9.706057e-01	0.000000e+00
4.696665e-01	2.851811e-01	0.000000e+00
9.382421e-01	9.667267e-01	0.000000e+00
7.193999e-01	1.368790e-01	0.000000e+00
4.846206e-01	9.738624e-02	0.000000e+00
2.202720e-01	7.489151e-01	0.000000e+00
7.646027e-01	6.573463e-01	0.000000e+00
3.682424e-01	6.528299e-01	0.000000e+00
3.210437e-01	5.043224e-01	0.000000e+00
8.741837e-01	4.853967e-01	0.000000e+00
3.406637e-01	2.948505e-01	0.000000e+00
3.806771e-01	5.952851e-01	0.000000e+00
8.874030e-01	5.838575e-02	0.000000e+00
4.656562e-02	3.418083e-01	0.000000e+00
1.046566e+00	3.418083e-01	0.000000e+00
4.244988e-01	8.475929e-01	0.000000e+00
6.894592e-01	4.458687e-01	0.000000e+00
2.702038e-01	2.193189e-02	0.000000e+00
2.702038e-01	1.021932e+00	0.000000e+00
8.713509e-01	1.660598e-01	0.000000e+00
1.655652e-01	5.776585e-01	0.000000e+00
5.277994e-01	7.272955e-01	0.000000e+00
2.104849e-03	6.823375e-01	0.000000e+00
1.002105e+00	6.823375e-01	0.000000e+00
7.132170e-01	1.976891e-01	0.000000e+00
2.992536e-01	8.807050e-01	0.000000e+00
3.177489e-02	7.552307e-01	0.000000e+00
1.031775e+00	7.552307e-01	0.000000e+00
1.577089e-01	8.074310e-01	0.000000e+00
7.970513e-02	9.841150e-02	0.000000e+00
4.319723e-01	5.922498e-01	0.000000e+00
6.995587e-01	3.181689e-01	0.000000e+00
2.169440e-01	4.868145e-01	0.000000e+00
4.249300e-01	8.364083e-02	0.000000e+00
9.537510e-01	5.674265e-02	0.000000e+00
9.537510e-01	1.056743e+00	0.000000e+00
4.198823e-02	6.350959e-01	0.000000e+00
1.041988e+00	6.350959e-01	0.000000e+00
2.370104e-01	7.000004e-01	0.000000e+00
1.175581e-01	1.547460e-01	0.000000e+00
9.295333e-01	6.704580e-01	0.000000e+00
9.048610e-01	6.146949e-01	0.000000e+00
2.128121e-01	1.250868e-02	0.000000e+00
2.128121e-01	1.012509e+00	0.000000e+00
9.100306e-01	3.651288e-01	0.000000e+00
4.473425e-03	2.508697e-01	0.000000e+00
1.004473e+00	2.508697e-01	0.000000e+00
4.728254e-01	9.189021e-01	0.000000e+00
2.696534e-01	4.966451e-01	0.000000e+00
3.896336e-01	7.464424e-01	0.000000e+00
3.706228e-01	4.243058e-01	0.000000e+00
9.247622e-02	4.161923e-02	0.000000e+00
9.247622e-02	1.041619e+00	0.000000e+00
2.739457e-01	1.330732e-01	0.000000e+00
5.480000e-01	5.439783e-02	0.000000e+00
5.480000e-01	1.054398e+00	0.000000e+00
2.989314e-01	6.531285e-01	0.000000e+00
1.153798e-01	6.698309e-01	0.000000e+00
5.251694e-01	3.229489e-01	0.000000e+00
1.085391e-01	8.539071e-01	0.000000e+00
5.082141e-02	2.831761e-01	0.000000e+00
1.050821e+00	2.831761e-01	0.000000e+00
6.850423e-01	9.467980e-01	0.000000e+00
5.320699e-01	9.107413e-01	0.000000e+00
4.101411e-01	5.347352e-01	0.000000e+00
4.249800e-01	9.535868e-01	0.000000e+00
4.343584e-01	4.787918e-01	0.000000e+00
6.032035e-02	1.567182e-01	0.000000e+00
1.060320e+00	1.567182e-01	0.000000e+00
6.347541e-01	6.896765e-01	0.000000e+00
2.016696e-01	2.763258e-01	0.000000e+00
8.706149e-01	5.544455e-01	0.000000e+00
9.767094e-01	7.413357e-01	0.000000e+00
4.457848e-01	2.140080e-01	0.000000e+00
5.625639e-01	1.410200e-01	0.000000e+00
9.214900e-02	5.868003e-01	0.000000e+00
1.785941e-01	1.174843e-01	0.000000e+00
2.513851e-01	5.502558e-01	0.000000e+00
5.859379e-01	8.325358e-01	0.000000e+00
3.791478e-01	1.179550e-01	0.000000e+00
4.890619e-01	5.080302e-01	0.000000e+00
9.199458e-01	8.383967e-01	0.000000e+00
7.475582e-01	3.962950e-01	0.000000e+00
3.103937e-01	7.905931e-01	0.000000e+00
7.162461e-01	6.438098e-01	0.000000e+00
3.245853e-02	1.452201e-02	0.000000e+00
1.032459e+00	1.452201e-02	0.000000e+00
3.245853e-02	1.014522e+00	0.000000e+00
1.032459e+00	1.014522e+00	0.000000e+00
8.197729e-01	9.732711e-01	0.000000e+00
4.079376e-01	3.625906e-01	0.000000e+00
5.985840e-01	5.240612e-01	0.000000e+00
1.102134e-01	4.664957e-01	0.000000e+00
9.745016e-01	8.944216e-01	0.000000e+00
7.043862e-01	5.508157e-01	0.000000e+00
5.881007e-01	9.466922e-02	0.000000e+00
9.325112e-01	5.553183e-01	0.000000e+00
7.651063e-01	8.589102e-01	0.000000e+00
1.387920e-01	5.350719e-01	0.000000e+00
7.577369e-01	5.829458e-01	0.000000e+00
8.185357e-01	1.999234e-01	0.000000e+00
9.998646e-01	1.299113e-01	0.000000e+00
2.443543e-01	6.388424e-01	0.000000e+00
9.044512e-01	4.070034e-03	0.000000e+00
9.044512e-01	1.004070e+00	0.000000e+00
7.553815e-01	7.332576e-02	0.000000e+00
7.553815e-01	1.073326e+00	0.000000e+00
5.690349e-01	5.753141e-01	0.000000e+00
7.669269e-01	2.317931e-01	0.000000e+00
3.347549e-01	9.318836e-01	0.000000e+00
6.997547e-01	8.927028e-01	0.000000e+00
8.316053e-01	7.421745e-01	0.000000e+00
5.475418e-01	5.152053e-01	0.000000e+00
2.830562e-01	7.481683e-01	0.000000e+00
6.330396e-01	4.110795e-01	0.000000e+00
6.467664e-01	3.178878e-01	0.000000e+00
6.897494e-01	7.839146e-02	0.000000e+00
8.347345e-01	8.832113e-01	0.000000e+00
1.200823e-01	9.975189e-01	0.000000e+00
4.831504e-01	3.512288e-01	0.000000e+00
3.923968e-01	1.799270e-01	0.000000e+00
6.181134e-01	6.352896e-01	0.000000e+00
1.652027e-01	4.752269e-01	0.000000e+00
8.458222e-01	3.549444e-01	0.000000e+00
4.476133e-01	7.759226e-01	0.000000e+00
3.680640e-01	8.634481e-01	0.000000e+00
3.247219e-01	5.789544e-01	0.000000e+00
9.318896e-01	4.943070e-01	0.000000e+00
9.631272e-03	4.557915e-01	0.000000e+00
1.009631e+00	4.557915e-01	0.000000e+00
7.622121e-01	9.139740e-01	0.000000e+00
5.933213e-02	6.887330e-01	0.000000e+00
5.788921e-01	2.120678e-01	0.000000e+00
8.728752e-01	8.099794e-01	0.000000e+00
2.153691e-01	1.570960e-01	0.000000e+00
4.933264e-01	1.579533e-01	0.000000e+00
6.275456e-01	5.683069e-02	0.000000e+00
6.275456e-01	1.056831e+00	0.000000e+00
6.594664e-01	7.462953e-01	0.000000e+00
9.872297e-01	3.094170e-01	0.000000e+00
2.566512e-01	3.020648e-01	0.000000e+00
1.592684e-01	8.942397e-01	0.000000e+00
2.177719e-01	5.903585e-01	0.000000e+00
[...]
<PointData Scalars="scalars">
<DataArray type="Float32" Name="displacement" NumberOfComponents="3" format="ascii">
1.500314e-07	-4.113721e-05	0.000000e+00
3.050524e-07	-4.341979e-05	0.000000e+00
-1.011714e-06	-2.844612e-05	0.000000e+00
-2.904531e-08	-2.354269e-05	0.000000e+00
3.616321e-07	-6.885324e-06	0.000000e+00
-2.577577e-07	-3.419804e-05	0.000000e+00
4.590442e-07	-5.922463e-06	0.000000e+00
-1.694925e-07	-1.181437e-05	0.000000e+00
-1.885016e-08	-1.332013e-05	0.000000e+00
-6.504920e-07	-2.711923e-05	0.000000e+00
2.477076e-07	-1.154205e-05	0.000000e+00
1.472608e-07	-1.051754e-05	0.000000e+00
1.295643e-07	-4.737854e-06	0.000000e+00
3.010011e-07	-4.580108e-05	0.000000e+00
-2.443024e-07	-7.252896e-06	0.000000e+00
-4.317848e-07	-8.723746e-06	0.000000e+00
-4.317848e-07	-8.723746e-06	0.000000e+00
-2.304303e-07	-3.728150e-05	0.000000e+00
-6.396660e-07	-2.650764e-05	0.000000e+00
-6.396660e-07	-2.650764e-05	0.000000e+00
-5.814838e-07	-2.349368e-05	0.000000e+00
-5.814838e-07	-2.349368e-05	0.000000e+00
-7.075516e-07	-4.796624e-05	0.000000e+00
-2.846254e-08	-3.800726e-05	0.000000e+00
2.410377e-07	-4.395198e-05	0.000000e+00
-5.220241e-07	-1.794740e-05	0.000000e+00
7.315800e-08	-2.553607e-05	0.000000e+00
-1.259931e-07	-2.335133e-06	0.000000e+00
-1.259931e-07	-2.335133e-06	0.000000e+00
-5.756272e-07	-1.107246e-05	0.000000e+00
-5.077288e-07	-2.928954e-05	0.000000e+00
-1.762872e-08	-3.833676e-05	0.000000e+00
-1.014932e-08	-4.322196e-05	0.000000e+00
-2.383736e-08	-3.002193e-06	0.000000e+00
7.584754e-08	8.569684e-07	0.000000e+00
7.584754e-08	-4.914303e-05	0.000000e+00
-3.571318e-07	-3.771304e-05	0.000000e+00
1.571721e-07	-1.056126e-05	0.000000e+00
-2.121023e-07	-1.551275e-05	0.000000e+00
-6.877759e-07	-2.225822e-05	0.000000e+00
-4.141988e-07	-4.576773e-05	0.000000e+00
-1.783982e-07	-3.144026e-06	0.000000e+00
-1.714772e-07	-1.753452e-05	0.000000e+00
1.665530e-07	-4.595574e-05	0.000000e+00
-2.772993e-07	-4.049669e-05	0.000000e+00
-2.527805e-07	-2.083057e-05	0.000000e+00
2.071706e-07	1.195672e-06	0.000000e+00
2.071706e-07	-4.880433e-05	0.000000e+00
-5.820534e-08	-1.854641e-05	0.000000e+00
-5.207824e-07	-3.769163e-05	0.000000e+00
-1.994982e-07	-3.334714e-05	0.000000e+00
-2.579819e-07	-1.608342e-05	0.000000e+00
7.030875e-08	-4.241752e-05	0.000000e+00
-4.300698e-07	-1.696170e-06	0.000000e+00
-5.132810e-07	-3.102178e-05	0.000000e+00
-1.452995e-07	-3.564285e-05	0.000000e+00
-5.428041e-07	-3.287012e-05	0.000000e+00
1.988130e-08	-4.603809e-05	0.000000e+00
1.390603e-07	-8.991587e-06	0.000000e+00
-4.246529e-07	-3.816618e-05	0.000000e+00
-6.320203e-08	-2.058242e-05	0.000000e+00
3.999871e-07	-1.112882e-05	0.000000e+00
-5.984989e-08	-3.768439e-05	0.000000e+00
-5.984989e-08	-3.768439e-05	0.000000e+00
-2.081409e-07	-8.172412e-06	0.000000e+00
2.487340e-07	-3.818543e-05	0.000000e+00
3.947779e-07	-4.642658e-05	0.000000e+00
3.947779e-07	-4.642658e-05	0.000000e+00
-4.210550e-07	-3.076394e-05	0.000000e+00
-6.136497e-07	-2.141937e-05	0.000000e+00
7.235840e-08	-1.001119e-05	0.000000e+00
-3.735179e-07	-1.870130e-05	0.000000e+00
7.153311e-08	-8.053912e-06	0.000000e+00
-5.423729e-07	-3.538309e-05	0.000000e+00
-5.043457e-08	-1.901171e-05	0.000000e+00
-6.661720e-07	-2.149941e-05	0.000000e+00
2.376242e-07	-1.097104e-05	0.000000e+00
-3.144620e-07	-1.344439e-05	0.000000e+00
-8.472744e-07	-2.792420e-05	0.000000e+00
-2.804852e-07	-1.021013e-06	0.000000e+00
-2.948551e-07	-1.491373e-06	0.000000e+00
-2.948551e-07	-5.149137e-05	0.000000e+00
5.056134e-08	-1.582805e-05	0.000000e+00
-3.866970e-07	-6.349716e-06	0.000000e+00
-4.832228e-07	-3.403092e-05	0.000000e+00
-2.380802e-07	-7.040961e-06	0.000000e+00
2.359591e-07	-4.423154e-05	0.000000e+00
9.202982e-08	-1.836148e-05	0.000000e+00
-6.214033e-07	-3.422199e-05	0.000000e+00
-1.773435e-09	-3.460139e-05	0.000000e+00
3.168501e-07	-4.215999e-05	0.000000e+00
-2.360861e-07	-1.137348e-05	0.000000e+00
-4.140211e-07	-2.947957e-05	0.000000e+00
-8.839097e-08	-1.115208e-05	0.000000e+00
-5.923536e-07	-1.939842e-05	0.000000e+00
-2.171810e-07	-4.790477e-05	0.000000e+00
-1.970681e-08	-1.605405e-05	0.000000e+00
-3.170285e-07	-1.453472e-05	0.000000e+00
-1.277753e-07	-2.000284e-05	0.000000e+00
4.812183e-07	6.950727e-07	0.000000e+00
4.812183e-07	-4.930493e-05	0.000000e+00
-2.673168e-07	-4.113680e-05	0.000000e+00
-2.673168e-07	-4.113680e-05	0.000000e+00
-1.354872e-07	-3.954110e-05	0.000000e+00
-1.835708e-07	-1.989442e-05	0.000000e+00
-2.391544e-07	-1.580097e-05	0.000000e+00
-8.810784e-07	-2.396952e-05	0.000000e+00
7.206195e-07	-4.627000e-05	0.000000e+00
-2.271946e-07	-1.179850e-05	0.000000e+00
7.949175e-07	-4.565551e-05	0.000000e+00
-2.466612e-07	-5.016259e-06	0.000000e+00
-4.761330e-07	-2.981664e-06	0.000000e+00
-6.847884e-07	-3.477669e-05	0.000000e+00
-4.975070e-07	-3.091807e-05	0.000000e+00
-1.055293e-06	-3.079412e-05	0.000000e+00
-7.658199e-07	-2.366142e-05	0.000000e+00
2.759360e-07	-2.239541e-05	0.000000e+00
5.867715e-08	-1.305923e-05	0.000000e+00
-8.784602e-07	-2.822198e-05	0.000000e+00
-1.845294e-07	-6.629902e-07	0.000000e+00
-3.808747e-07	-1.555625e-05	0.000000e+00
-3.808747e-07	-1.555625e-05	0.000000e+00
-8.769268e-10	-4.001982e-05	0.000000e+00
-2.025157e-07	-1.988074e-05	0.000000e+00
1.968142e-07	1.433230e-06	0.000000e+00
1.968142e-07	-4.856677e-05	0.000000e+00
-3.833856e-07	-6.573612e-06	0.000000e+00
-8.868238e-07	-2.625748e-05	0.000000e+00
-6.159105e-07	-3.432377e-05	0.000000e+00
-1.871703e-07	-3.207580e-05	0.000000e+00
-1.871703e-07	-3.207580e-05	0.000000e+00
-2.184911e-07	-7.998592e-06	0.000000e+00
1.214424e-07	-4.142879e-05	0.000000e+00
-3.122202e-07	-3.530549e-05	0.000000e+00
-3.122202e-07	-3.530549e-05	0.000000e+00
-2.352215e-07	-3.721353e-05	0.000000e+00
-4.174052e-07	-3.470283e-06	0.000000e+00
-1.033076e-06	-2.783008e-05	0.000000e+00
-1.901798e-07	-1.355045e-05	0.000000e+00
-5.140398e-07	-2.153770e-05	0.000000e+00
-1.648035e-08	-1.920965e-06	0.000000e+00
-1.670250e-07	-6.745943e-07	0.000000e+00
-1.670250e-07	-5.067459e-05	0.000000e+00
-3.314068e-07	-2.940394e-05	0.000000e+00
-3.314068e-07	-2.940394e-05	0.000000e+00
-6.395642e-07	-3.255433e-05	0.000000e+00
-3.429640e-07	-6.300644e-06	0.000000e+00
-5.898188e-07	-3.107550e-05	0.000000e+00
-4.253218e-07	-2.832797e-05	0.000000e+00
5.968729e-07	1.640180e-06	0.000000e+00
5.968729e-07	-4.835982e-05	0.000000e+00
-6.594933e-07	-1.627349e-05	0.000000e+00
-4.699167e-07	-1.074810e-05	0.000000e+00
-4.699167e-07	-1.074810e-05	0.000000e+00
-1.509043e-07	-4.340280e-05	0.000000e+00
-4.747234e-07	-2.249936e-05	0.000000e+00
-1.875770e-07	-3.515752e-05	0.000000e+00
-6.178816e-07	-1.917543e-05	0.000000e+00
-1.674392e-07	-7.118793e-07	0.000000e+00
-1.674392e-07	-5.071188e-05	0.000000e+00
8.885120e-09	-3.863119e-06	0.000000e+00
-4.229340e-07	-6.062804e-07	0.000000e+00
-4.229340e-07	-5.060628e-05	0.000000e+00
-7.079644e-07	-3.044099e-05	0.000000e+00
-2.071114e-07	-3.077186e-05	0.000000e+00
-1.493021e-07	-1.360163e-05	0.000000e+00
-1.333559e-07	-3.995391e-05	0.000000e+00
-1.670046e-07	-1.293780e-05	0.000000e+00
-1.670046e-07	-1.293780e-05	0.000000e+00
-1.476791e-08	-4.506489e-05	0.000000e+00
-3.119021e-07	-4.338728e-05	0.000000e+00
-7.809622e-07	-2.474204e-05	0.000000e+00
1.226378e-07	-4.521081e-05	0.000000e+00
-7.580729e-07	-2.176115e-05	0.000000e+00
-2.787302e-07	-6.283925e-06	0.000000e+00
-2.787302e-07	-6.283925e-06	0.000000e+00
-4.267213e-07	-3.276966e-05	0.000000e+00
-7.104017e-07	-1.187075e-05	0.000000e+00
-3.313694e-07	-2.546162e-05	0.000000e+00
-2.761855e-07	-3.468577e-05	0.000000e+00
5.073203e-07	-8.760107e-06	0.000000e+00
-4.917709e-07	-5.222002e-06	0.000000e+00
-7.431912e-07	-2.700410e-05	0.000000e+00
-2.904757e-07	-3.857626e-06	0.000000e+00
-2.537798e-07	-2.487974e-05	0.000000e+00
-6.480917e-08	-3.966209e-05	0.000000e+00
-1.294700e-07	-4.042336e-06	0.000000e+00
-6.901708e-07	-2.382038e-05	0.000000e+00
-4.360630e-07	-3.957947e-05	0.000000e+00
-4.379844e-07	-1.777598e-05	0.000000e+00
-2.270689e-07	-3.716887e-05	0.000000e+00
-3.241103e-07	-3.020293e-05	0.000000e+00
1.070411e-08	1.113832e-06	0.000000e+00
1.070411e-08	1.113832e-06	0.000000e+00
1.070411e-08	-4.888617e-05	0.000000e+00
1.070411e-08	-4.888617e-05	0.000000e+00
5.123226e-08	-4.639200e-05	0.000000e+00
-3.597934e-07	-1.597424e-05	0.000000e+00
-9.952876e-07	-2.417597e-05	0.000000e+00
-3.378144e-07	-2.121537e-05	0.000000e+00
-2.393801e-07	-4.218504e-05	0.000000e+00
-6.918451e-08	-2.537926e-05	0.000000e+00
1.578654e-07	-3.079265e-06	0.000000e+00
-5.644662e-07	-2.556165e-05	0.000000e+00
-2.033800e-07	-4.121149e-05	0.000000e+00
-1.064755e-06	-2.425458e-05	0.000000e+00
-1.447489e-07	-2.705207e-05	0.000000e+00
-1.820966e-07	-7.966800e-06	0.000000e+00
-4.539999e-07	-4.568128e-06	0.000000e+00
-4.526862e-07	-2.997853e-05	0.000000e+00
-4.141527e-08	1.798865e-06	0.000000e+00
-4.141527e-08	-4.820113e-05	0.000000e+00
1.111068e-07	-1.469907e-06	0.000000e+00
1.111068e-07	-5.146991e-05	0.000000e+00
-8.996045e-07	-2.657970e-05	0.000000e+00
-4.502995e-08	-9.174418e-06	0.000000e+00
3.346959e-07	-4.411007e-05	0.000000e+00
-4.438127e-08	-4.254323e-05	0.000000e+00
-2.139906e-07	-3.480251e-05	0.000000e+00
-1.059191e-06	-2.377337e-05	0.000000e+00
-3.538726e-07	-3.526739e-05	0.000000e+00
-4.377118e-07	-1.834939e-05	0.000000e+00
-1.529488e-07	-1.338402e-05	0.000000e+00
2.713827e-07	-2.399617e-06	0.000000e+00
-5.381079e-07	-4.156131e-05	0.000000e+00
9.056417e-08	-4.823002e-05	0.000000e+00
-5.084239e-07	-1.541260e-05	0.000000e+00
7.391423e-07	-7.237372e-06	0.000000e+00
-6.898350e-07	-2.984047e-05	0.000000e+00
-3.631974e-07	-2.135447e-05	0.000000e+00
-6.116622e-07	-1.547090e-05	0.000000e+00
-2.776967e-07	-3.693638e-05	0.000000e+00
-6.205160e-08	-4.057612e-05	0.000000e+00
-4.733013e-07	-2.694670e-05	0.000000e+00
1.121589e-08	-2.300644e-05	0.000000e+00
8.741454e-08	-2.096504e-05	0.000000e+00
8.741454e-08	-2.096504e-05	0.000000e+00
-3.927298e-07	-4.364032e-05	0.000000e+00
-2.651017e-07	-3.216841e-05	0.000000e+00
-2.324569e-07	-8.598154e-06	0.000000e+00
-1.615418e-07	-3.793786e-05	0.000000e+00
1.051161e-07	-6.064843e-06	0.000000e+00
7.966814e-08	-5.864386e-06	0.000000e+00
-7.755653e-08	-1.413201e-06	0.000000e+00
-7.755653e-08	-5.141320e-05	0.000000e+00
-6.655628e-07	-3.522608e-05	0.000000e+00
-3.324420e-07	-1.373424e-05	0.000000e+00
-7.039975e-07	-1.333461e-05	0.000000e+00
4.260409e-07	-4.201472e-05	0.000000e+00
-8.143677e-07	-2.732470e-05	0.000000e+00
-3.334587e-07	-2.832478e-05	0.000000e+00
-1.045528e-06	-2.614171e-05	0.000000e+00
3.495293e-07	-4.712835e-05	0.000000e+00
-2.066174e-07	-2.148474e-05	0.000000e+00
-1.485358e-06	-3.054918e-05	0.000000e+00
2.614775e-07	-4.768818e-05	0.000000e+00
-3.104278e-07	-3.190417e-05	0.000000e+00
6.479259e-07	-4.455820e-05	0.000000e+00
6.479259e-07	-4.455820e-05	0.000000e+00
-1.017134e-07	-9.326051e-06	0.000000e+00
-4.086148e-07	-1.814638e-05	0.000000e+00
-4.086148e-07	-1.814638e-05	0.000000e+00
1.276794e-07	-4.652563e-05	0.000000e+00
1.330772e-07	2.779448e-06	0.000000e+00
1.330772e-07	-4.722055e-05	0.000000e+00
-6.012758e-07	-4.124366e-05	0.000000e+00
-1.625563e-07	-5.157991e-06	0.000000e+00
3.145300e-08	-4.374075e-05	0.000000e+00
-1.848793e-07	-1.453426e-05	0.000000e+00
-3.378231e-07	-1.702559e-07	0.000000e+00
-3.378231e-07	-5.017026e-05	0.000000e+00
1.878225e-07	-4.230287e-06	0.000000e+00
1.301465e-07	-1.569144e-05	0.000000e+00
-6.698331e-07	-3.158237e-05	0.000000e+00
-6.954871e-07	-3.180845e-05	0.000000e+00
1.570111e-07	-1.370255e-05	0.000000e+00
-1.179733e-07	-3.704843e-05	0.000000e+00
-2.076094e-07	-1.838423e-05	0.000000e+00
0.000000e+00	0.000000e+00	0.000000e+00
0.000000e+00	-5.000000e-05	0.000000e+00
0.000000e+00	0.000000e+00	0.000000e+00
0.000000e+00	0.000000e+00	0.000000e+00
0.000000e+00	0.000000e+00	0.000000e+00
0.000000e+00	0.000000e+00	0.000000e+00
0.000000e+00	0.000000e+00	0.000000e+00
0.000000e+00	0.000000e+00	0.000000e+00
0.000000e+00	0.000000e+00	0.000000e+00
0.000000e+00	0.000000e+00	0.000000e+00
0.000000e+00	0.000000e+00	0.000000e+00
0.000000e+00	0.000000e+00	0.000000e+00
0.000000e+00	0.000000e+00	0.000000e+00
0.000000e+00	0.000000e+00	0.000000e+00
0.000000e+00	0.000000e+00	0.000000e+00
0.000000e+00	0.000000e+00	0.000000e+00
0.000000e+00	0.000000e+00	0.000000e+00
0.000000e+00	0.000000e+00	0.000000e+00
0.000000e+00	0.000000e+00	0.000000e+00
0.000000e+00	0.000000e+00	0.000000e+00
0.000000e+00	0.000000e+00	0.000000e+00
0.000000e+00	0.000000e+00	0.000000e+00
0.000000e+00	0.000000e+00	0.000000e+00
0.000000e+00	0.000000e+00	0.000000e+00
0.000000e+00	0.000000e+00	0.000000e+00
0.000000e+00	0.000000e+00	0.000000e+00
0.000000e+00	0.000000e+00	0.000000e+00
0.000000e+00	0.000000e+00	0.000000e+00
0.000000e+00	0.000000e+00	0.000000e+00
0.000000e+00	0.000000e+00	0.000000e+00
0.000000e+00	0.000000e+00	0.000000e+00
0.000000e+00	0.000000e+00	0.000000e+00
0.000000e+00	0.000000e+00	0.000000e+00
0.000000e+00	0.000000e+00	0.000000e+00
0.000000e+00	0.000000e+00	0.000000e+00
0.000000e+00	0.000000e+00	0.000000e+00
0.000000e+00	0.000000e+00	0.000000e+00
0.000000e+00	0.000000e+00	0.000000e+00
0.000000e+00	0.000000e+00	0.000000e+00
0.000000e+00	0.000000e+00	0.000000e+00
0.000000e+00	0.000000e+00	0.000000e+00
0.000000e+00	0.000000e+00	0.000000e+00
0.000000e+00	0.000000e+00	0.000000e+00
0.000000e+00	0.000000e+00	0.000000e+00
0.000000e+00	0.000000e+00	0.000000e+00
0.000000e+00	0.000000e+00	0.000000e+00
0.000000e+00	0.000000e+00	0.000000e+00
0.000000e+00	0.000000e+00	0.000000e+00
0.000000e+00	0.000000e+00	0.000000e+00
0.000000e+00	0.000000e+00	0.000000e+00
0.000000e+00	0.000000e+00	0.000000e+00
0.000000e+00	0.000000e+00	0.000000e+00
0.000000e+00	0.000000e+00	0.000000e+00
0.000000e+00	0.000000e+00	0.000000e+00
0.000000e+00	0.000000e+00	0.000000e+00
0.000000e+00	0.000000e+00	0.000000e+00
0.000000e+00	0.000000e+00	0.000000e+00
0.000000e+00	0.000000e+00	0.000000e+00
0.000000e+00	0.000000e+00	0.000000e+00
0.000000e+00	0.000000e+00	0.000000e+00
0.000000e+00	0.000000e+00	0.000000e+00
0.000000e+00	0.000000e+00	0.000000e+00
0.000000e+00	0.000000e+00	0.000000e+00
0.000000e+00	0.000000e+00	0.000000e+00
0.000000e+00	0.000000e+00	0.000000e+00
0.000000e+00	0.000000e+00	0.000000e+00
0.000000e+00	0.000000e+00	0.000000e+00
0.000000e+00	0.000000e+00	0.000000e+00
0.000000e+00	0.000000e+00	0.000000e+00
0.000000e+00	0.000000e+00	0.000000e+00
0.000000e+00	0.000000e+00	0.000000e+00
0.000000e+00	0.000000e+00	0.000000e+00
0.000000e+00	0.000000e+00	0.000000e+00
0.000000e+00	0.000000e+00	0.000000e+00
0.000000e+00	0.000000e+00	0.000000e+00
0.000000e+00	0.000000e+00	0.000000e+00
0.000000e+00	0.000000e+00	0.000000e+00
0.000000e+00	0.000000e+00	0.000000e+00
0.000000e+00	0.000000e+00	0.000000e+00
0.000000e+00	0.000000e+00	0.000000e+00
0.000000e+00	0.000000e+00	0.000000e+00
0.000000e+00	0.000000e+00	0.000000e+00
0.000000e+00	0.000000e+00	0.000000e+00
0.000000e+00	0.000000e+00	0.000000e+00
0.000000e+00	0.000000e+00	0.000000e+00
0.000000e+00	0.000000e+00	0.000000e+00
0.000000e+00	0.000000e+00	0.000000e+00
0.000000e+00	0.000000e+00	0.000000e+00
0.000000e+00	0.000000e+00	0.000000e+00
0.000000e+00	0.000000e+00	0.000000e+00
0.000000e+00	0.000000e+00	0.000000e+00
0.000000e+00	0.000000e+00	0.000000e+00
0.000000e+00	0.000000e+00	0.000000e+00
0.000000e+00	0.000000e+00	0.000000e+00
0.000000e+00	0.000000e+00	0.000000e+00
0.000000e+00	0.000000e+00	0.000000e+00
0.000000e+00	0.000000e+00	0.000000e+00
0.000000e+00	0.000000e+00	0.000000e+00
0.000000e+00	0.000000e+00	0.000000e+00
0.000000e+00	0.000000e+00	0.000000e+00
0.000000e+00	0.000000e+00	0.000000e+00
0.000000e+00	0.000000e+00	0.000000e+00
0.000000e+00	0.000000e+00	0.000000e+00
0.000000e+00	0.000000e+00	0.000000e+00
0.000000e+00	0.000000e+00	0.000000e+00
0.000000e+00	0.000000e+00	0.000000e+00
0.000000e+00	0.000000e+00	0.000000e+00
0.000000e+00	0.000000e+00	0.000000e+00
0.000000e+00	0.000000e+00	0.000000e+00
0.000000e+00	0.000000e+00	0.000000e+00
0.000000e+00	0.000000e+00	0.000000e+00
0.000000e+00	0.000000e+00	0.000000e+00
0.000000e+00	0.000000e+00	0.000000e+00
0.000000e+00	0.000000e+00	0.000000e+00
0.000000e+00	0.000000e+00	0.000000e+00
0.000000e+00	0.000000e+00	0.000000e+00
0.000000e+00	0.000000e+00	0.000000e+00
0.000000e+00	0.000000e+00	0.000000e+00
0.000000e+00	0.000000e+00	0.000000e+00
0.000000e+00	0.000000e+00	0.000000e+00
0.000000e+00	0.000000e+00	0.000000e+00
0.000000e+00	0.000000e+00	0.000000e+00
0.000000e+00	0.000000e+00	0.000000e+00
0.000000e+00	0.000000e+00	0.000000e+00
0.000000e+00	0.000000e+00	0.000000e+00
0.000000e+00	0.000000e+00	0.000000e+00
0.000000e+00	0.000000e+00	0.000000e+00
0.000000e+00	0.000000e+00	0.000000e+00
0.000000e+00	0.000000e+00	0.000000e+00
0.000000e+00	0.000000e+00	0.000000e+00
0.000000e+00	0.000000e+00	0.000000e+00
0.000000e+00	0.000000e+00	0.000000e+00
0.000000e+00	0.000000e+00	0.000000e+00
0.000000e+00	0.000000e+00	0.000000e+00
0.000000e+00	0.000000e+00	0.000000e+00
0.000000e+00	0.000000e+00	0.000000e+00
0.000000e+00	0.000000e+00	0.000000e+00
0.000000e+00	0.000000e+00	0.000000e+00
0.000000e+00	0.000000e+00	0.000000e+00
0.000000e+00	0.000000e+00	0.000000e+00
0.000000e+00	0.000000e+00	0.000000e+00
0.000000e+00	0.000000e+00	0.000000e+00
0.000000e+00	0.000000e+00	0.000000e+00
0.000000e+00	0.000000e+00	0.000000e+00
0.000000e+00	0.000000e+00	0.000000e+00
0.000000e+00	0.000000e+00	0.000000e+00
0.000000e+00	0.000000e+00	0.000000e+00
0.000000e+00	0.000000e+00	0.000000e+00
0.000000e+00	0.000000e+00	0.000000e+00
0.000000e+00	0.000000e+00	0.000000e+00
0.000000e+00	0.000000e+00	0.000000e+00
0.000000e+00	0.000000e+00	0.000000e+00
0.000000e+00	0.000000e+00	0.000000e+00
0.000000e+00	0.000000e+00	0.000000e+00
0.000000e+00	0.000000e+00	0.000000e+00
0.000000e+00	0.000000e+00	0.000000e+00
0.000000e+00	0.000000e+00	0.000000e+00
0.000000e+00	0.000000e+00	0.000000e+00
0.000000e+00	0.000000e+00	0.000000e+00
0.000000e+00	0.000000e+00	0.000000e+00
0.000000e+00	0.000000e+00	0.000000e+00
0.000000e+00	0.000000e+00	0.000000e+00
0.000000e+00	0.000000e+00	0.000000e+00
0.000000e+00	0.000000e+00	0.000000e+00
0.000000e+00	0.000000e+00	0.000000e+00
0.000000e+00	0.000000e+00	0.000000e+00
0.000000e+00	0.000000e+00	0.000000e+00
0.000000e+00	0.000000e+00	0.000000e+00
0.000000e+00	0.000000e+00	0.000000e+00
0.000000e+00	0.000000e+00	0.000000e+00
0.000000e+00	0.000000e+00	0.000000e+00
0.000000e+00	0.000000e+00	0.000000e+00
0.000000e+00	0.000000e+00	0.000000e+00
0.000000e+00	0.000000e+00	0.000000e+00
0.000000e+00	0.000000e+00	0.000000e+00
0.000000e+00	0.000000e+00	0.000000e+00
0.000000e+00	0.000000e+00	0.000000e+00
0.000000e+00	0.000000e+00	0.000000e+00
0.000000e+00	0.000000e+00	0.000000e+00
0.000000e+00	0.000000e+00	0.000000e+00
0.000000e+00	0.000000e+00	0.000000e+00
0.000000e+00	0.000000e+00	0.000000e+00
0.000000e+00	0.000000e+00	0.000000e+00
0.000000e+00	0.000000e+00	0.000000e+00
0.000000e+00	0.000000e+00	0.000000e+00
0.000000e+00	0.000000e+00	0.000000e+00
0.000000e+00	0.000000e+00	0.000000e+00
0.000000e+00	0.000000e+00	0.000000e+00
0.000000e+00	0.000000e+00	0.000000e+00
0.000000e+00	0.000000e+00	0.000000e+00
0.000000e+00	0.000000e+00	0.000000e+00
0.000000e+00	0.000000e+00	0.000000e+00
0.000000e+00	0.000000e+00	0.000000e+00
0.000000e+00	0.000000e+00	0.000000e+00
0.000000e+00	0.000000e+00	0.000000e+00
0.000000e+00	0.000000e+00	0.000000e+00
0.000000e+00	0.000000e+00	0.000000e+00
0.000000e+00	0.000000e+00	0.000000e+00
0.000000e+00	0.000000e+00	0.000000e+00
0.000000e+00	0.000000e+00	0.000000e+00
0.000000e+00	0.000000e+00	0.000000e+00
0.000000e+00	0.000000e+00	0.000000e+00
0.000000e+00	0.000000e+00	0.000000e+00
0.000000e+00	0.000000e+00	0.000000e+00
0.000000e+00	0.000000e+00	0.000000e+00
0.000000e+00	0.000000e+00	0.000000e+00
0.000000e+00	0.000000e+00	0.000000e+00
0.000000e+00	0.000000e+00	0.000000e+00
0.000000e+00	0.000000e+00	0.000000e+00
0.000000e+00	0.000000e+00	0.000000e+00
0.000000e+00	0.000000e+00	0.000000e+00
0.000000e+00	0.000000e+00	0.000000e+00
0.000000e+00	0.000000e+00	0.000000e+00
0.000000e+00	0.000000e+00	0.000000e+00
0.000000e+00	0.000000e+00	0.000000e+00
0.000000e+00	0.000000e+00	0.000000e+00
0.000000e+00	0.000000e+00	0.000000e+00
0.000000e+00	0.000000e+00	0.000000e+00
0.000000e+00	0.000000e+00	0.000000e+00