<?xml version="1.0"?>
<VTKFile type="UnstructuredGrid" version="0.1" byte_order="LittleEndian">
<UnstructuredGrid>
<Piece NumberOfPoints="807" NumberOfCells="735">
<Points>
<DataArray type="Float32" NumberOfComponents="3" format="ascii">
2.219932e-01	8.707323e-01	0.000000e+00
2.067192e-01	9.186109e-01	0.000000e+00
4.884112e-01	6.117439e-01	0.000000e+00
7.659079e-01	5.184180e-01	0.000000e+00
2.968005e-01	1.877212e-01	0.000000e+00
8.074127e-02	7.384403e-01	0.000000e+00
4.413092e-01	1.583099e-01	0.000000e+00
8.799370e-01	2.740865e-01	0.000000e+00
4.142350e-01	2.960799e-01	0.000000e+00
6.287879e-01	5.798378e-01	0.000000e+00
5.999292e-01	2.658191e-01	0.000000e+00
2.846859e-01	2.535882e-01	0.000000e+00
3.275639e-01	1.441643e-01	0.000000e+00
1.656129e-01	9.639305e-01	0.000000e+00
9.602267e-01	1.884147e-01	0.000000e+00
2.430656e-02	2.045555e-01	0.000000e+00
1.024307e+00	2.045555e-01	0.000000e+00
6.998436e-01	7.795146e-01	0.000000e+00
2.293309e-02	5.776629e-01	0.000000e+00
1.022933e+00	5.776629e-01	0.000000e+00
1.642173e-03	5.154726e-01	0.000000e+00
1.001642e+00	5.154726e-01	0.000000e+00
6.397952e-01	9.856244e-01	0.000000e+00
2.590976e-01	8.024969e-01	0.000000e+00
8.704831e-01	9.227496e-01	0.000000e+00
9.814687e-01	3.989448e-01	0.000000e+00
8.137325e-01	5.464565e-01	0.000000e+00
2.911156e-02	8.652569e-02	0.000000e+00
1.029112e+00	8.652569e-02	0.000000e+00
1.114538e-01	2.512451e-01	0.000000e+00
9.649153e-01	6.317661e-01	0.000000e+00
6.353562e-01	8.119024e-01	0.000000e+00
9.266826e-01	9.126268e-01	0.000000e+00
8.248107e-01	9.420273e-02	0.000000e+00
3.610484e-01	3.550903e-02	0.000000e+00
3.610484e-01	1.035509e+00	0.000000e+00
5.463583e-01	7.961427e-01	0.000000e+00
3.654778e-01	2.442909e-01	0.000000e+00
7.950875e-01	3.520949e-01	0.000000e+00
6.388777e-01	4.934151e-01	0.000000e+00
5.834997e-01	9.392994e-01	0.000000e+00
9.435401e-01	1.116924e-01	0.000000e+00
1.008273e-01	3.834091e-01	0.000000e+00
5.103548e-01	9.611031e-01	0.000000e+00
4.783390e-01	8.499800e-01	0.000000e+00
5.147380e-01	4.466078e-01	0.000000e+00
8.004764e-01	2.039138e-02	0.000000e+00
8.004764e-01	1.020391e+00	0.000000e+00
5.726186e-01	4.113836e-01	0.000000e+00
9.851368e-01	8.014015e-01	0.000000e+00
4.524188e-01	7.029421e-01	0.000000e+00
3.320481e-01	3.599832e-01	0.000000e+00
4.076857e-01	8.985712e-01	0.000000e+00
3.302533e-01	8.273857e-02	0.000000e+00
5.267176e-01	6.608444e-01	0.000000e+00
7.699327e-01	7.590991e-01	0.000000e+00
7.100490e-01	7.015528e-01	0.000000e+00
7.673314e-01	9.743495e-01	0.000000e+00
2.396404e-01	2.214828e-01	0.000000e+00
3.635998e-01	8.103142e-01	0.000000e+00
6.009617e-02	4.497436e-01	0.000000e+00
8.131705e-01	2.642384e-01	0.000000e+00
8.507046e-02	8.077774e-01	0.000000e+00
1.085070e+00	8.077774e-01	0.000000e+00
1.702501e-01	1.953446e-01	0.000000e+00
8.146420e-01	8.102855e-01	0.000000e+00
5.982164e-02	9.649966e-01	0.000000e+00
1.059822e+00	9.649966e-01	0.000000e+00
8.257058e-01	6.594173e-01	0.000000e+00
5.809185e-01	4.728282e-01	0.000000e+00
6.522708e-01	2.418591e-01	0.000000e+00
4.593456e-01	4.186541e-01	0.000000e+00
4.966955e-01	2.111410e-01	0.000000e+00
6.039841e-01	7.485758e-01	0.000000e+00
2.184978e-01	4.256373e-01	0.000000e+00
3.653330e-01	4.779413e-01	0.000000e+00
5.420904e-01	2.652302e-01	0.000000e+00
1.343637e-01	3.018861e-01	0.000000e+00
6.791827e-01	6.013412e-01	0.000000e+00
2.456310e-01	7.126598e-02	0.000000e+00
1.656418e-01	6.036643e-02	0.000000e+00
1.656418e-01	1.060366e+00	0.000000e+00
2.781559e-01	3.483320e-01	0.000000e+00
6.247545e-01	1.596809e-01	0.000000e+00
8.937627e-01	7.305913e-01	0.000000e+00
7.703294e-01	1.814812e-01	0.000000e+00
1.197690e-01	9.303418e-01	0.000000e+00
1.547451e-01	4.070790e-01	0.000000e+00
1.611325e-01	7.392507e-01	0.000000e+00
3.383386e-01	7.427507e-01	0.000000e+00
6.337165e-01	8.889285e-01	0.000000e+00
7.139591e-01	2.651127e-01	0.000000e+00
1.906563e-01	6.342143e-01	0.000000e+00
9.385529e-01	2.581864e-01	0.000000e+00
2.924805e-01	4.256440e-01	0.000000e+00
5.711786e-01	9.900556e-01	0.000000e+00
6.689134e-01	3.714049e-01	0.000000e+00
2.065027e-01	3.307044e-01	0.000000e+00
8.112160e-01	4.457925e-01	0.000000e+00
4.473102e-01	2.752846e-02	0.000000e+00
4.473102e-01	1.027528e+00	0.000000e+00
4.773838e-02	8.635856e-01	0.000000e+00
1.047738e+00	8.635856e-01	0.000000e+00
7.143176e-01	8.304377e-01	0.000000e+00
9.132175e-01	4.333879e-01	0.000000e+00
5.831126e-01	3.488276e-01	0.000000e+00
6.881641e-02	5.254495e-01	0.000000e+00
2.748344e-01	9.706057e-01	0.000000e+00
4.696665e-01	2.851811e-01	0.000000e+00
9.382421e-01	9.667267e-01	0.000000e+00
7.193999e-01	1.368790e-01	0.000000e+00
4.846206e-01	9.738624e-02	0.000000e+00
2.202720e-01	7.489151e-01	0.000000e+00
7.646027e-01	6.573463e-01	0.000000e+00
3.682424e-01	6.528299e-01	0.000000e+00
3.210437e-01	5.043224e-01	0.000000e+00
8.741837e-01	4.853967e-01	0.000000e+00
3.406637e-01	2.948505e-01	0.000000e+00
3.806771e-01	5.952851e-01	0.000000e+00
8.874030e-01	5.838575e-02	0.000000e+00
4.656562e-02	3.418083e-01	0.000000e+00
1.046566e+00	3.418083e-01	0.000000e+00
4.244988e-01	8.475929e-01	0.000000e+00
6.894592e-01	4.458687e-01	0.000000e+00
2.702038e-01	2.193189e-02	0.000000e+00
2.702038e-01	1.021932e+00	0.000000e+00
8.713509e-01	1.660598e-01	0.000000e+00
1.655652e-01	5.776585e-01	0.000000e+00
5.277994e-01	7.272955e-01	0.000000e+00
2.104849e-03	6.823375e-01	0.000000e+00
1.002105e+00	6.823375e-01	0.000000e+00
7.132170e-01	1.976891e-01	0.000000e+00
2.992536e-01	8.807050e-01	0.000000e+00
3.177489e-02	7.552307e-01	0.000000e+00
1.031775e+00	7.552307e-01	0.000000e+00
1.577089e-01	8.074310e-01	0.000000e+00
7.970513e-02	9.841150e-02	0.000000e+00
4.319723e-01	5.922498e-01	0.000000e+00
6.995587e-01	3.181689e-01	0.000000e+00
2.169440e-01	4.868145e-01	0.000000e+00
4.249300e-01	8.364083e-02	0.000000e+00
9.537510e-01	5.674265e-02	0.000000e+00
9.537510e-01	1.056743e+00	0.000000e+00
4.198823e-02	6.350959e-01	0.000000e+00
1.041988e+00	6.350959e-01	0.000000e+00
2.370104e-01	7.000004e-01	0.000000e+00
1.175581e-01	1.547460e-01	0.000000e+00
9.295333e-01	6.704580e-01	0.000000e+00
9.048610e-01	6.146949e-01	0.000000e+00
2.128121e-01	1.250868e-02	0.000000e+00
2.128121e-01	1.012509e+00	0.000000e+00
9.100306e-01	3.651288e-01	0.000000e+00
4.473425e-03	2.508697e-01	0.000000e+00
1.004473e+00	2.508697e-01	0.000000e+00
4.728254e-01	9.189021e-01	0.000000e+00
2.696534e-01	4.966451e-01	0.000000e+00
3.896336e-01	7.464424e-01	0.000000e+00
3.706228e-01	4.243058e-01	0.000000e+00
9.247622e-02	4.161923e-02	0.000000e+00
9.247622e-02	1.041619e+00	0.000000e+00
2.739457e-01	1.330732e-01	0.000000e+00
5.480000e-01	5.439783e-02	0.000000e+00
5.480000e-01	1.054398e+00	0.000000e+00
2.989314e-01	6.531285e-01	0.000000e+00
1.153798e-01	6.698309e-01	0.000000e+00
5.251694e-01	3.229489e-01	0.000000e+00
1.085391e-01	8.539071e-01	0.000000e+00
5.082141e-02	2.831761e-01	0.000000e+00
1.050821e+00	2.831761e-01	0.000000e+00
6.850423e-01	9.467980e-01	0.000000e+00
5.320699e-01	9.107413e-01	0.000000e+00
4.101411e-01	5.347352e-01	0.000000e+00
4.249800e-01	9.535868e-01	0.000000e+00
4.343584e-01	4.787918e-01	0.000000e+00
6.032035e-02	1.567182e-01	0.000000e+00
1.060320e+00	1.567182e-01	0.000000e+00
6.347541e-01	6.896765e-01	0.000000e+00
2.016696e-01	2.763258e-01	0.000000e+00
8.706149e-01	5.544455e-01	0.000000e+00
9.767094e-01	7.413357e-01	0.000000e+00
4.457848e-01	2.140080e-01	0.000000e+00
5.625639e-01	1.410200e-01	0.000000e+00
9.214900e-02	5.868003e-01	0.000000e+00
1.785941e-01	1.174843e-01	0.000000e+00
2.513851e-01	5.502558e-01	0.000000e+00
5.859379e-01	8.325358e-01	0.000000e+00
3.791478e-01	1.179550e-01	0.000000e+00
4.890619e-01	5.080302e-01	0.000000e+00
9.199458e-01	8.383967e-01	0.000000e+00
7.475582e-01	3.962950e-01	0.000000e+00
3.103937e-01	7.905931e-01	0.000000e+00
7.162461e-01	6.438098e-01	0.000000e+00
3.245853e-02	1.452201e-02	0.000000e+00
1.032459e+00	1.452201e-02	0.000000e+00
3.245853e-02	1.014522e+00	0.000000e+00
1.032459e+00	1.014522e+00	0.000000e+00
8.197729e-01	9.732711e-01	0.000000e+00
4.079376e-01	3.625906e-01	0.000000e+00
5.985840e-01	5.240612e-01	0.000000e+00
1.102134e-01	4.664957e-01	0.000000e+00
9.745016e-01	8.944216e-01	0.000000e+00
7.043862e-01	5.508157e-01	0.000000e+00
5.881007e-01	9.466922e-02	0.000000e+00
9.325112e-01	5.553183e-01	0.000000e+00
7.651063e-01	8.589102e-01	0.000000e+00
1.387920e-01	5.350719e-01	0.000000e+00
7.577369e-01	5.829458e-01	0.000000e+00
8.185357e-01	1.999234e-01	0.000000e+00
9.998646e-01	1.299113e-01	0.000000e+00
2.443543e-01	6.388424e-01	0.000000e+00
9.044512e-01	4.070034e-03	0.000000e+00
9.044512e-01	1.004070e+00	0.000000e+00
7.553815e-01	7.332576e-02	0.000000e+00
7.553815e-01	1.073326e+00	0.000000e+00
5.690349e-01	5.753141e-01	0.000000e+00
7.669269e-01	2.317931e-01	0.000000e+00
3.347549e-01	9.318836e-01	0.000000e+00
6.997547e-01	8.927028e-01	0.000000e+00
8.316053e-01	7.421745e-01	0.000000e+00
5.475418e-01	5.152053e-01	0.000000e+00
2.830562e-01	7.481683e-01	0.000000e+00
6.330396e-01	4.110795e-01	0.000000e+00
6.467664e-01	3.178878e-01	0.000000e+00
6.897494e-01	7.839146e-02	0.000000e+00
8.347345e-01	8.832113e-01	0.000000e+00
1.200823e-01	9.975189e-01	0.000000e+00
4.831504e-01	3.512288e-01	0.000000e+00
3.923968e-01	1.799270e-01	0.000000e+00
6.181134e-01	6.352896e-01	0.000000e+00
1.652027e-01	4.752269e-01	0.000000e+00
8.458222e-01	3.549444e-01	0.000000e+00
4.476133e-01	7.759226e-01	0.000000e+00
3.680640e-01	8.634481e-01	0.000000e+00
3.247219e-01	5.789544e-01	0.000000e+00
9.318896e-01	4.943070e-01	0.000000e+00
9.631272e-03	4.557915e-01	0.000000e+00
1.009631e+00	4.557915e-01	0.000000e+00
7.622121e-01	9.139740e-01	0.000000e+00
5.933213e-02	6.887330e-01	0.000000e+00
5.788921e-01	2.120678e-01	0.000000e+00
8.728752e-01	8.099794e-01	0.000000e+00
2.153691e-01	1.570960e-01	0.000000e+00
4.933264e-01	1.579533e-01	0.000000e+00
6.275456e-01	5.683069e-02	0.000000e+00
6.275456e-01	1.056831e+00	0.000000e+00
6.594664e-01	7.462953e-01	0.000000e+00
9.872297e-01	3.094170e-01	0.000000e+00
2.566512e-01	3.020648e-01	0.000000e+00
1.592684e-01	8.942397e-01	0.000000e+00
2.177719e-01	5.903585e-01	0.000000e+00
[...]
<PointData Scalars="scalars">
<DataArray type="Float32" Name="displacement" NumberOfComponents="3" format="ascii">
6.001257e-07	-1.645488e-04	0.000000e+00
1.220210e-06	-1.736792e-04	0.000000e+00
-4.046855e-06	-1.137845e-04	0.000000e+00
-1.161812e-07	-9.417075e-05	0.000000e+00
1.446528e-06	-2.754130e-05	0.000000e+00
-1.031031e-06	-1.367922e-04	0.000000e+00
1.836177e-06	-2.368985e-05	0.000000e+00
-6.779701e-07	-4.725746e-05	0.000000e+00
-7.540066e-08	-5.328054e-05	0.000000e+00
-2.601968e-06	-1.084769e-04	0.000000e+00
9.908305e-07	-4.616822e-05	0.000000e+00
5.890431e-07	-4.207018e-05	0.000000e+00
5.182573e-07	-1.895142e-05	0.000000e+00
1.204004e-06	-1.832043e-04	0.000000e+00
-9.772098e-07	-2.901158e-05	0.000000e+00
-1.727139e-06	-3.489498e-05	0.000000e+00
-1.727139e-06	-3.489498e-05	0.000000e+00
-9.217214e-07	-1.491260e-04	0.000000e+00
-2.558664e-06	-1.060306e-04	0.000000e+00
-2.558664e-06	-1.060306e-04	0.000000e+00
-2.325935e-06	-9.397474e-05	0.000000e+00
-2.325935e-06	-9.397474e-05	0.000000e+00
-2.830206e-06	-1.918650e-04	0.000000e+00
-1.138501e-07	-1.520290e-04	0.000000e+00
9.641508e-07	-1.758079e-04	0.000000e+00
-2.088096e-06	-7.178958e-05	0.000000e+00
2.926320e-07	-1.021443e-04	0.000000e+00
-5.039725e-07	-9.340534e-06	0.000000e+00
-5.039725e-07	-9.340534e-06	0.000000e+00
-2.302509e-06	-4.428982e-05	0.000000e+00
-2.030915e-06	-1.171582e-04	0.000000e+00
-7.051487e-08	-1.533471e-04	0.000000e+00
-4.059727e-08	-1.728879e-04	0.000000e+00
-9.534942e-08	-1.200877e-05	0.000000e+00
3.033902e-07	3.427874e-06	0.000000e+00
3.033902e-07	-1.965721e-04	0.000000e+00
-1.428527e-06	-1.508522e-04	0.000000e+00
6.286883e-07	-4.224504e-05	0.000000e+00
-8.484091e-07	-6.205098e-05	0.000000e+00
-2.751104e-06	-8.903287e-05	0.000000e+00
-1.656795e-06	-1.830709e-04	0.000000e+00
-7.135930e-07	-1.257610e-05	0.000000e+00
-6.859088e-07	-7.013810e-05	0.000000e+00
6.662122e-07	-1.838229e-04	0.000000e+00
-1.109197e-06	-1.619868e-04	0.000000e+00
-1.011122e-06	-8.332230e-05	0.000000e+00
8.286824e-07	4.782687e-06	0.000000e+00
8.286824e-07	-1.952173e-04	0.000000e+00
-2.328214e-07	-7.418564e-05	0.000000e+00
-2.083129e-06	-1.507665e-04	0.000000e+00
-7.979928e-07	-1.333885e-04	0.000000e+00
-1.031928e-06	-6.433367e-05	0.000000e+00
2.812350e-07	-1.696701e-04	0.000000e+00
-1.720279e-06	-6.784679e-06	0.000000e+00
-2.053124e-06	-1.240871e-04	0.000000e+00
-5.811980e-07	-1.425714e-04	0.000000e+00
-2.171216e-06	-1.314805e-04	0.000000e+00
7.952522e-08	-1.841524e-04	0.000000e+00
5.562411e-07	-3.596635e-05	0.000000e+00
-1.698612e-06	-1.526647e-04	0.000000e+00
-2.528081e-07	-8.232968e-05	0.000000e+00
1.599948e-06	-4.451526e-05	0.000000e+00
-2.393996e-07	-1.507375e-04	0.000000e+00
-2.393996e-07	-1.507375e-04	0.000000e+00
-8.325635e-07	-3.268965e-05	0.000000e+00
9.949359e-07	-1.527417e-04	0.000000e+00
1.579111e-06	-1.857063e-04	0.000000e+00
1.579111e-06	-1.857063e-04	0.000000e+00
-1.684220e-06	-1.230558e-04	0.000000e+00
-2.454599e-06	-8.567746e-05	0.000000e+00
2.894336e-07	-4.004477e-05	0.000000e+00
-1.494071e-06	-7.480519e-05	0.000000e+00
2.861324e-07	-3.221565e-05	0.000000e+00
-2.169492e-06	-1.415324e-04	0.000000e+00
-2.017383e-07	-7.604686e-05	0.000000e+00
-2.664688e-06	-8.599764e-05	0.000000e+00
9.504969e-07	-4.388415e-05	0.000000e+00
-1.257848e-06	-5.377756e-05	0.000000e+00
-3.389098e-06	-1.116968e-04	0.000000e+00
-1.121941e-06	-4.084053e-06	0.000000e+00
-1.179420e-06	-5.965490e-06	0.000000e+00
-1.179420e-06	-2.059655e-04	0.000000e+00
2.022454e-07	-6.331218e-05	0.000000e+00
-1.546788e-06	-2.539887e-05	0.000000e+00
-1.932891e-06	-1.361237e-04	0.000000e+00
-9.523208e-07	-2.816384e-05	0.000000e+00
9.438363e-07	-1.769262e-04	0.000000e+00
3.681193e-07	-7.344593e-05	0.000000e+00
-2.485613e-06	-1.368880e-04	0.000000e+00
-7.093739e-09	-1.384056e-04	0.000000e+00
1.267400e-06	-1.686400e-04	0.000000e+00
-9.443446e-07	-4.549394e-05	0.000000e+00
-1.656084e-06	-1.179183e-04	0.000000e+00
-3.535639e-07	-4.460831e-05	0.000000e+00
-2.369414e-06	-7.759369e-05	0.000000e+00
-8.687239e-07	-1.916191e-04	0.000000e+00
-7.882723e-08	-6.421619e-05	0.000000e+00
-1.268114e-06	-5.813887e-05	0.000000e+00
-5.111012e-07	-8.001137e-05	0.000000e+00
1.924873e-06	2.780291e-06	0.000000e+00
1.924873e-06	-1.972197e-04	0.000000e+00
-1.069267e-06	-1.645472e-04	0.000000e+00
-1.069267e-06	-1.645472e-04	0.000000e+00
-5.419487e-07	-1.581644e-04	0.000000e+00
-7.342830e-07	-7.957766e-05	0.000000e+00
-9.566176e-07	-6.320389e-05	0.000000e+00
-3.524314e-06	-9.587808e-05	0.000000e+00
2.882478e-06	-1.850800e-04	0.000000e+00
-9.087783e-07	-4.719400e-05	0.000000e+00
3.179670e-06	-1.826220e-04	0.000000e+00
-9.866449e-07	-2.006504e-05	0.000000e+00
-1.904532e-06	-1.192666e-05	0.000000e+00
-2.739153e-06	-1.391068e-04	0.000000e+00
-1.990028e-06	-1.236723e-04	0.000000e+00
-4.221173e-06	-1.231765e-04	0.000000e+00
-3.063280e-06	-9.464567e-05	0.000000e+00
1.103744e-06	-8.958165e-05	0.000000e+00
2.347086e-07	-5.223693e-05	0.000000e+00
-3.513841e-06	-1.128879e-04	0.000000e+00
-7.381176e-07	-2.651961e-06	0.000000e+00
-1.523499e-06	-6.222499e-05	0.000000e+00
-1.523499e-06	-6.222499e-05	0.000000e+00
-3.507707e-09	-1.600793e-04	0.000000e+00
-8.100629e-07	-7.952298e-05	0.000000e+00
7.872567e-07	5.732918e-06	0.000000e+00
7.872567e-07	-1.942671e-04	0.000000e+00
-1.533542e-06	-2.629445e-05	0.000000e+00
-3.547295e-06	-1.050299e-04	0.000000e+00
-2.463642e-06	-1.372951e-04	0.000000e+00
-7.486814e-07	-1.283032e-04	0.000000e+00
-7.486814e-07	-1.283032e-04	0.000000e+00
-8.739645e-07	-3.199437e-05	0.000000e+00
4.857695e-07	-1.657152e-04	0.000000e+00
-1.248881e-06	-1.412220e-04	0.000000e+00
-1.248881e-06	-1.412220e-04	0.000000e+00
-9.408862e-07	-1.488541e-04	0.000000e+00
-1.669621e-06	-1.388113e-05	0.000000e+00
-4.132305e-06	-1.113203e-04	0.000000e+00
-7.607194e-07	-5.420182e-05	0.000000e+00
-2.056159e-06	-8.615082e-05	0.000000e+00
-6.592141e-08	-7.683861e-06	0.000000e+00
-6.681000e-07	-2.698377e-06	0.000000e+00
-6.681000e-07	-2.026984e-04	0.000000e+00
-1.325627e-06	-1.176158e-04	0.000000e+00
-1.325627e-06	-1.176158e-04	0.000000e+00
-2.558257e-06	-1.302173e-04	0.000000e+00
-1.371856e-06	-2.520258e-05	0.000000e+00
-2.359275e-06	-1.243020e-04	0.000000e+00
-1.701287e-06	-1.133119e-04	0.000000e+00
2.387491e-06	6.560721e-06	0.000000e+00
2.387491e-06	-1.934393e-04	0.000000e+00
-2.637973e-06	-6.509396e-05	0.000000e+00
-1.879667e-06	-4.299239e-05	0.000000e+00
-1.879667e-06	-4.299239e-05	0.000000e+00
-6.036170e-07	-1.736112e-04	0.000000e+00
-1.898893e-06	-8.999745e-05	0.000000e+00
-7.503080e-07	-1.406301e-04	0.000000e+00
-2.471526e-06	-7.670173e-05	0.000000e+00
-6.697566e-07	-2.847517e-06	0.000000e+00
-6.697566e-07	-2.028475e-04	0.000000e+00
3.554048e-08	-1.545248e-05	0.000000e+00
-1.691736e-06	-2.425122e-06	0.000000e+00
-1.691736e-06	-2.024251e-04	0.000000e+00
-2.831857e-06	-1.217639e-04	0.000000e+00
-8.284456e-07	-1.230875e-04	0.000000e+00
-5.972085e-07	-5.440651e-05	0.000000e+00
-5.334237e-07	-1.598156e-04	0.000000e+00
-6.680185e-07	-5.175118e-05	0.000000e+00
-6.680185e-07	-5.175118e-05	0.000000e+00
-5.907164e-08	-1.802596e-04	0.000000e+00
-1.247608e-06	-1.735491e-04	0.000000e+00
-3.123849e-06	-9.896815e-05	0.000000e+00
4.905511e-07	-1.808432e-04	0.000000e+00
-3.032291e-06	-8.704459e-05	0.000000e+00
-1.114921e-06	-2.513570e-05	0.000000e+00
-1.114921e-06	-2.513570e-05	0.000000e+00
-1.706885e-06	-1.310786e-04	0.000000e+00
-2.841607e-06	-4.748300e-05	0.000000e+00
-1.325477e-06	-1.018465e-04	0.000000e+00
-1.104742e-06	-1.387431e-04	0.000000e+00
2.029281e-06	-3.504043e-05	0.000000e+00
-1.967084e-06	-2.088801e-05	0.000000e+00
-2.972765e-06	-1.080164e-04	0.000000e+00
-1.161903e-06	-1.543050e-05	0.000000e+00
-1.015119e-06	-9.951894e-05	0.000000e+00
-2.592367e-07	-1.586484e-04	0.000000e+00
-5.178801e-07	-1.616934e-05	0.000000e+00
-2.760683e-06	-9.528153e-05	0.000000e+00
-1.744252e-06	-1.583179e-04	0.000000e+00
-1.751937e-06	-7.110392e-05	0.000000e+00
-9.082758e-07	-1.486755e-04	0.000000e+00
-1.296441e-06	-1.208117e-04	0.000000e+00
4.281646e-08	4.455327e-06	0.000000e+00
4.281646e-08	4.455327e-06	0.000000e+00
4.281646e-08	-1.955447e-04	0.000000e+00
4.281646e-08	-1.955447e-04	0.000000e+00
2.049290e-07	-1.855680e-04	0.000000e+00
-1.439174e-06	-6.389695e-05	0.000000e+00
-3.981150e-06	-9.670386e-05	0.000000e+00
-1.351258e-06	-8.486147e-05	0.000000e+00
-9.575204e-07	-1.687402e-04	0.000000e+00
-2.767380e-07	-1.015170e-04	0.000000e+00
6.314615e-07	-1.231706e-05	0.000000e+00
-2.257865e-06	-1.022466e-04	0.000000e+00
-8.135200e-07	-1.648460e-04	0.000000e+00
-4.259021e-06	-9.701830e-05	0.000000e+00
-5.789954e-07	-1.082083e-04	0.000000e+00
-7.283865e-07	-3.186720e-05	0.000000e+00
-1.816000e-06	-1.827251e-05	0.000000e+00
-1.810745e-06	-1.199141e-04	0.000000e+00
-1.656611e-07	7.195462e-06	0.000000e+00
-1.656611e-07	-1.928045e-04	0.000000e+00
4.444272e-07	-5.879629e-06	0.000000e+00
4.444272e-07	-2.058796e-04	0.000000e+00
-3.598418e-06	-1.063188e-04	0.000000e+00
-1.801198e-07	-3.669767e-05	0.000000e+00
1.338784e-06	-1.764403e-04	0.000000e+00
-1.775251e-07	-1.701729e-04	0.000000e+00
-8.559623e-07	-1.392100e-04	0.000000e+00
-4.236764e-06	-9.509349e-05	0.000000e+00
-1.415490e-06	-1.410696e-04	0.000000e+00
-1.750847e-06	-7.339757e-05	0.000000e+00
-6.117951e-07	-5.353609e-05	0.000000e+00
1.085531e-06	-9.598470e-06	0.000000e+00
-2.152432e-06	-1.662452e-04	0.000000e+00
3.622567e-07	-1.929201e-04	0.000000e+00
-2.033696e-06	-6.165039e-05	0.000000e+00
2.956569e-06	-2.894949e-05	0.000000e+00
-2.759340e-06	-1.193619e-04	0.000000e+00
-1.452789e-06	-8.541787e-05	0.000000e+00
-2.446649e-06	-6.188361e-05	0.000000e+00
-1.110787e-06	-1.477455e-04	0.000000e+00
-2.482064e-07	-1.623045e-04	0.000000e+00
-1.893205e-06	-1.077868e-04	0.000000e+00
4.486357e-08	-9.202577e-05	0.000000e+00
3.496582e-07	-8.386018e-05	0.000000e+00
3.496582e-07	-8.386018e-05	0.000000e+00
-1.570919e-06	-1.745613e-04	0.000000e+00
-1.060407e-06	-1.286737e-04	0.000000e+00
-9.298276e-07	-3.439262e-05	0.000000e+00
-6.461671e-07	-1.517514e-04	0.000000e+00
4.204643e-07	-2.425937e-05	0.000000e+00
3.186726e-07	-2.345754e-05	0.000000e+00
-3.102261e-07	-5.652806e-06	0.000000e+00
-3.102261e-07	-2.056528e-04	0.000000e+00
-2.662251e-06	-1.409043e-04	0.000000e+00
-1.329768e-06	-5.493695e-05	0.000000e+00
-2.815990e-06	-5.333843e-05	0.000000e+00
1.704163e-06	-1.680589e-04	0.000000e+00
-3.257471e-06	-1.092988e-04	0.000000e+00
-1.333835e-06	-1.132991e-04	0.000000e+00
-4.182112e-06	-1.045669e-04	0.000000e+00
1.398117e-06	-1.885134e-04	0.000000e+00
-8.264695e-07	-8.593896e-05	0.000000e+00
-5.941433e-06	-1.221967e-04	0.000000e+00
1.045910e-06	-1.907527e-04	0.000000e+00
-1.241711e-06	-1.276167e-04	0.000000e+00
2.591704e-06	-1.782328e-04	0.000000e+00
2.591704e-06	-1.782328e-04	0.000000e+00
-4.068535e-07	-3.730420e-05	0.000000e+00
-1.634459e-06	-7.258554e-05	0.000000e+00
-1.634459e-06	-7.258554e-05	0.000000e+00
5.107175e-07	-1.861025e-04	0.000000e+00
5.323087e-07	1.111779e-05	0.000000e+00
5.323087e-07	-1.888822e-04	0.000000e+00
-2.405103e-06	-1.649746e-04	0.000000e+00
-6.502252e-07	-2.063197e-05	0.000000e+00
1.258120e-07	-1.749630e-04	0.000000e+00
-7.395173e-07	-5.813705e-05	0.000000e+00
-1.351292e-06	-6.810237e-07	0.000000e+00
-1.351292e-06	-2.006810e-04	0.000000e+00
7.512902e-07	-1.692115e-05	0.000000e+00
5.205858e-07	-6.276578e-05	0.000000e+00
-2.679333e-06	-1.263295e-04	0.000000e+00
-2.781948e-06	-1.272338e-04	0.000000e+00
6.280443e-07	-5.481021e-05	0.000000e+00
-4.718930e-07	-1.481937e-04	0.000000e+00
-8.304376e-07	-7.353694e-05	0.000000e+00
0.000000e+00	0.000000e+00	0.000000e+00
0.000000e+00	-2.000000e-04	0.000000e+00
0.000000e+00	0.000000e+00	0.000000e+00
0.000000e+00	0.000000e+00	0.000000e+00
0.000000e+00	0.000000e+00	0.000000e+00
0.000000e+00	0.000000e+00	0.000000e+00
0.000000e+00	0.000000e+00	0.000000e+00
0.000000e+00	0.000000e+00	0.000000e+00
0.000000e+00	0.000000e+00	0.000000e+00
0.000000e+00	0.000000e+00	0.000000e+00
0.000000e+00	0.000000e+00	0.000000e+00
0.000000e+00	0.000000e+00	0.000000e+00
0.000000e+00	0.000000e+00	0.000000e+00
0.000000e+00	0.000000e+00	0.000000e+00
0.000000e+00	0.000000e+00	0.000000e+00
0.000000e+00	0.000000e+00	0.000000e+00
0.000000e+00	0.000000e+00	0.000000e+00
0.000000e+00	0.000000e+00	0.000000e+00
0.000000e+00	0.000000e+00	0.000000e+00
0.000000e+00	0.000000e+00	0.000000e+00
0.000000e+00	0.000000e+00	0.000000e+00
0.000000e+00	0.000000e+00	0.000000e+00
0.000000e+00	0.000000e+00	0.000000e+00
0.000000e+00	0.000000e+00	0.000000e+00
0.000000e+00	0.000000e+00	0.000000e+00
0.000000e+00	0.000000e+00	0.000000e+00
0.000000e+00	0.000000e+00	0.000000e+00
0.000000e+00	0.000000e+00	0.000000e+00
0.000000e+00	0.000000e+00	0.000000e+00
0.000000e+00	0.000000e+00	0.000000e+00
0.000000e+00	0.000000e+00	0.000000e+00
0.000000e+00	0.000000e+00	0.000000e+00
0.000000e+00	0.000000e+00	0.000000e+00
0.000000e+00	0.000000e+00	0.000000e+00
0.000000e+00	0.000000e+00	0.000000e+00
0.000000e+00	0.000000e+00	0.000000e+00
0.000000e+00	0.000000e+00	0.000000e+00
0.000000e+00	0.000000e+00	0.000000e+00
0.000000e+00	0.000000e+00	0.000000e+00
0.000000e+00	0.000000e+00	0.000000e+00
0.000000e+00	0.000000e+00	0.000000e+00
0.000000e+00	0.000000e+00	0.000000e+00
0.000000e+00	0.000000e+00	0.000000e+00
0.000000e+00	0.000000e+00	0.000000e+00
0.000000e+00	0.000000e+00	0.000000e+00
0.000000e+00	0.000000e+00	0.000000e+00
0.000000e+00	0.000000e+00	0.000000e+00
0.000000e+00	0.000000e+00	0.000000e+00
0.000000e+00	0.000000e+00	0.000000e+00
0.000000e+00	0.000000e+00	0.000000e+00
0.000000e+00	0.000000e+00	0.000000e+00
0.000000e+00	0.000000e+00	0.000000e+00
0.000000e+00	0.000000e+00	0.000000e+00
0.000000e+00	0.000000e+00	0.000000e+00
0.000000e+00	0.000000e+00	0.000000e+00
0.000000e+00	0.000000e+00	0.000000e+00
0.000000e+00	0.000000e+00	0.000000e+00
0.000000e+00	0.000000e+00	0.000000e+00
0.000000e+00	0.000000e+00	0.000000e+00
0.000000e+00	0.000000e+00	0.000000e+00
0.000000e+00	0.000000e+00	0.000000e+00
0.000000e+00	0.000000e+00	0.000000e+00
0.000000e+00	0.000000e+00	0.000000e+00
0.000000e+00	0.000000e+00	0.000000e+00
0.000000e+00	0.000000e+00	0.000000e+00
0.000000e+00	0.000000e+00	0.000000e+00
0.000000e+00	0.000000e+00	0.000000e+00
0.000000e+00	0.000000e+00	0.000000e+00
0.000000e+00	0.000000e+00	0.000000e+00
0.000000e+00	0.000000e+00	0.000000e+00
0.000000e+00	0.000000e+00	0.000000e+00
0.000000e+00	0.000000e+00	0.000000e+00
0.000000e+00	0.000000e+00	0.000000e+00
0.000000e+00	0.000000e+00	0.000000e+00
0.000000e+00	0.000000e+00	0.000000e+00
0.000000e+00	0.000000e+00	0.000000e+00
0.000000e+00	0.000000e+00	0.000000e+00
0.000000e+00	0.000000e+00	0.000000e+00
0.000000e+00	0.000000e+00	0.000000e+00
0.000000e+00	0.000000e+00	0.000000e+00
0.000000e+00	0.000000e+00	0.000000e+00
0.000000e+00	0.000000e+00	0.000000e+00
0.000000e+00	0.000000e+00	0.000000e+00
0.000000e+00	0.000000e+00	0.000000e+00
0.000000e+00	0.000000e+00	0.000000e+00
0.000000e+00	0.000000e+00	0.000000e+00
0.000000e+00	0.000000e+00	0.000000e+00
0.000000e+00	0.000000e+00	0.000000e+00
0.000000e+00	0.000000e+00	0.000000e+00
0.000000e+00	0.000000e+00	0.000000e+00
0.000000e+00	0.000000e+00	0.000000e+00
0.000000e+00	0.000000e+00	0.000000e+00
0.000000e+00	0.000000e+00	0.000000e+00
0.000000e+00	0.000000e+00	0.000000e+00
0.000000e+00	0.000000e+00	0.000000e+00
0.000000e+00	0.000000e+00	0.000000e+00
0.000000e+00	0.000000e+00	0.000000e+00
0.000000e+00	0.000000e+00	0.000000e+00
0.000000e+00	0.000000e+00	0.000000e+00
0.000000e+00	0.000000e+00	0.000000e+00
0.000000e+00	0.000000e+00	0.000000e+00
0.000000e+00	0.000000e+00	0.000000e+00
0.000000e+00	0.000000e+00	0.000000e+00
0.000000e+00	0.000000e+00	0.000000e+00
0.000000e+00	0.000000e+00	0.000000e+00
0.000000e+00	0.000000e+00	0.000000e+00
0.000000e+00	0.000000e+00	0.000000e+00
0.000000e+00	0.000000e+00	0.000000e+00
0.000000e+00	0.000000e+00	0.000000e+00
0.000000e+00	0.000000e+00	0.000000e+00
0.000000e+00	0.000000e+00	0.000000e+00
0.000000e+00	0.000000e+00	0.000000e+00
0.000000e+00	0.000000e+00	0.000000e+00
0.000000e+00	0.000000e+00	0.000000e+00
0.000000e+00	0.000000e+00	0.000000e+00
0.000000e+00	0.000000e+00	0.000000e+00
0.000000e+00	0.000000e+00	0.000000e+00
0.000000e+00	0.000000e+00	0.000000e+00
0.000000e+00	0.000000e+00	0.000000e+00
0.000000e+00	0.000000e+00	0.000000e+00
0.000000e+00	0.000000e+00	0.000000e+00
0.000000e+00	0.000000e+00	0.000000e+00
0.000000e+00	0.000000e+00	0.000000e+00
0.000000e+00	0.000000e+00	0.000000e+00
0.000000e+00	0.000000e+00	0.000000e+00
0.000000e+00	0.000000e+00	0.000000e+00
0.000000e+00	0.000000e+00	0.000000e+00
0.000000e+00	0.000000e+00	0.000000e+00
0.000000e+00	0.000000e+00	0.000000e+00
0.000000e+00	0.000000e+00	0.000000e+00
0.000000e+00	0.000000e+00	0.000000e+00
0.000000e+00	0.000000e+00	0.000000e+00
0.000000e+00	0.000000e+00	0.000000e+00
0.000000e+00	0.000000e+00	0.000000e+00
0.000000e+00	0.000000e+00	0.000000e+00
0.000000e+00	0.000000e+00	0.000000e+00
0.000000e+00	0.000000e+00	0.000000e+00
0.000000e+00	0.000000e+00	0.000000e+00
0.000000e+00	0.000000e+00	0.000000e+00
0.000000e+00	0.000000e+00	0.000000e+00
0.000000e+00	0.000000e+00	0.000000e+00
0.000000e+00	0.000000e+00	0.000000e+00
0.000000e+00	0.000000e+00	0.000000e+00
0.000000e+00	0.000000e+00	0.000000e+00
0.000000e+00	0.000000e+00	0.000000e+00
0.000000e+00	0.000000e+00	0.000000e+00
0.000000e+00	0.000000e+00	0.000000e+00
0.000000e+00	0.000000e+00	0.000000e+00
0.000000e+00	0.000000e+00	0.000000e+00
0.000000e+00	0.000000e+00	0.000000e+00
0.000000e+00	0.000000e+00	0.000000e+00
0.000000e+00	0.000000e+00	0.000000e+00
0.000000e+00	0.000000e+00	0.000000e+00
0.000000e+00	0.000000e+00	0.000000e+00
0.000000e+00	0.000000e+00	0.000000e+00
0.000000e+00	0.000000e+00	0.000000e+00
0.000000e+00	0.000000e+00	0.000000e+00
0.000000e+00	0.000000e+00	0.000000e+00
0.000000e+00	0.000000e+00	0.000000e+00
0.000000e+00	0.000000e+00	0.000000e+00
0.000000e+00	0.000000e+00	0.000000e+00
0.000000e+00	0.000000e+00	0.000000e+00
0.000000e+00	0.000000e+00	0.000000e+00
0.000000e+00	0.000000e+00	0.000000e+00
0.000000e+00	0.000000e+00	0.000000e+00
0.000000e+00	0.000000e+00	0.000000e+00
0.000000e+00	0.000000e+00	0.000000e+00
0.000000e+00	0.000000e+00	0.000000e+00
0.000000e+00	0.000000e+00	0.000000e+00
0.000000e+00	0.000000e+00	0.000000e+00
0.000000e+00	0.000000e+00	0.000000e+00
0.000000e+00	0.000000e+00	0.000000e+00
0.000000e+00	0.000000e+00	0.000000e+00
0.000000e+00	0.000000e+00	0.000000e+00
0.000000e+00	0.000000e+00	0.000000e+00
0.000000e+00	0.000000e+00	0.000000e+00
0.000000e+00	0.000000e+00	0.000000e+00
0.000000e+00	0.000000e+00	0.000000e+00
0.000000e+00	0.000000e+00	0.000000e+00
0.000000e+00	0.000000e+00	0.000000e+00
0.000000e+00	0.000000e+00	0.000000e+00
0.000000e+00	0.000000e+00	0.000000e+00
0.000000e+00	0.000000e+00	0.000000e+00
0.000000e+00	0.000000e+00	0.000000e+00
0.000000e+00	0.000000e+00	0.000000e+00
0.000000e+00	0.000000e+00	0.000000e+00
0.000000e+00	0.000000e+00	0.000000e+00
0.000000e+00	0.000000e+00	0.000000e+00
0.000000e+00	0.000000e+00	0.000000e+00
0.000000e+00	0.000000e+00	0.000000e+00
0.000000e+00	0.000000e+00	0.000000e+00
0.000000e+00	0.000000e+00	0.000000e+00
0.000000e+00	0.000000e+00	0.000000e+00
0.000000e+00	0.000000e+00	0.000000e+00
0.000000e+00	0.000000e+00	0.000000e+00
0.000000e+00	0.000000e+00	0.000000e+00
0.000000e+00	0.000000e+00	0.000000e+00
0.000000e+00	0.000000e+00	0.000000e+00
0.000000e+00	0.000000e+00	0.000000e+00
0.000000e+00	0.000000e+00	0.000000e+00
0.000000e+00	0.000000e+00	0.000000e+00
0.000000e+00	0.000000e+00	0.000000e+00
0.000000e+00	0.000000e+00	0.000000e+00
0.000000e+00	0.000000e+00	0.000000e+00
0.000000e+00	0.000000e+00	0.000000e+00
0.000000e+00	0.000000e+00	0.000000e+00
0.000000e+00	0.000000e+00	0.000000e+00
0.000000e+00	0.000000e+00	0.000000e+00
0.000000e+00	0.000000e+00	0.000000e+00
0.000000e+00	0.000000e+00	0.000000e+00
0.000000e+00	0.000000e+00	0.000000e+00
0.000000e+00	0.000000e+00	0.000000e+00
0.000000e+00	0.000000e+00	0.000000e+00
0.000000e+00	0.000000e+00	0.000000e+00
0.000000e+00	0.000000e+00	0.000000e+00
0.000000e+00	0.000000e+00	0.000000e+00
0.000000e+00	0.000000e+00	0.000000e+00
0.000000e+00	0.000000e+00	0.000000e+00
0.000000e+00	0.000000e+00	0.000000e+00