<?xml version="1.0"?>
<VTKFile type="UnstructuredGrid" version="0.1" byte_order="LittleEndian">
<UnstructuredGrid>
<Piece NumberOfPoints="807" NumberOfCells="735">
<Points>
<DataArray type="Float32" NumberOfComponents="3" format="ascii">
2.219932e-01	8.707323e-01	0.000000e+00
2.067192e-01	9.186109e-01	0.000000e+00
4.884112e-01	6.117439e-01	0.000000e+00
7.659079e-01	5.184180e-01	0.000000e+00
2.968005e-01	1.877212e-01	0.000000e+00
8.074127e-02	7.384403e-01	0.000000e+00
4.413092e-01	1.583099e-01	0.000000e+00
8.799370e-01	2.740865e-01	0.000000e+00
4.142350e-01	2.960799e-01	0.000000e+00
6.287879e-01	5.798378e-01	0.000000e+00
5.999292e-01	2.658191e-01	0.000000e+00
2.846859e-01	2.535882e-01	0.000000e+00
3.275639e-01	1.441643e-01	0.000000e+00
1.656129e-01	9.639305e-01	0.000000e+00
9.602267e-01	1.884147e-01	0.000000e+00
2.430656e-02	2.045555e-01	0.000000e+00
1.024307e+00	2.045555e-01	0.000000e+00
6.998436e-01	7.795146e-01	0.000000e+00
2.293309e-02	5.776629e-01	0.000000e+00
1.022933e+00	5.776629e-01	0.000000e+00
1.642173e-03	5.154726e-01	0.000000e+00
1.001642e+00	5.154726e-01	0.000000e+00
6.397952e-01	9.856244e-01	0.000000e+00
2.590976e-01	8.024969e-01	0.000000e+00
8.704831e-01	9.227496e-01	0.000000e+00
9.814687e-01	3.989448e-01	0.000000e+00
8.137325e-01	5.464565e-01	0.000000e+00
2.911156e-02	8.652569e-02	0.000000e+00
1.029112e+00	8.652569e-02	0.000000e+00
1.114538e-01	2.512451e-01	0.000000e+00
9.649153e-01	6.317661e-01	0.000000e+00
6.353562e-01	8.119024e-01	0.000000e+00
9.266826e-01	9.126268e-01	0.000000e+00
8.248107e-01	9.420273e-02	0.000000e+00
3.610484e-01	3.550903e-02	0.000000e+00
3.610484e-01	1.035509e+00	0.000000e+00
5.463583e-01	7.961427e-01	0.000000e+00
3.654778e-01	2.442909e-01	0.000000e+00
7.950875e-01	3.520949e-01	0.000000e+00
6.388777e-01	4.934151e-01	0.000000e+00
5.834997e-01	9.392994e-01	0.000000e+00
9.435401e-01	1.116924e-01	0.000000e+00
1.008273e-01	3.834091e-01	0.000000e+00
5.103548e-01	9.611031e-01	0.000000e+00
4.783390e-01	8.499800e-01	0.000000e+00
5.147380e-01	4.466078e-01	0.000000e+00
8.004764e-01	2.039138e-02	0.000000e+00
8.004764e-01	1.020391e+00	0.000000e+00
5.726186e-01	4.113836e-01	0.000000e+00
9.851368e-01	8.014015e-01	0.000000e+00
4.524188e-01	7.029421e-01	0.000000e+00
3.320481e-01	3.599832e-01	0.000000e+00
4.076857e-01	8.985712e-01	0.000000e+00
3.302533e-01	8.273857e-02	0.000000e+00
5.267176e-01	6.608444e-01	0.000000e+00
7.699327e-01	7.590991e-01	0.000000e+00
7.100490e-01	7.015528e-01	0.000000e+00
7.673314e-01	9.743495e-01	0.000000e+00
2.396404e-01	2.214828e-01	0.000000e+00
3.635998e-01	8.103142e-01	0.000000e+00
6.009617e-02	4.497436e-01	0.000000e+00
8.131705e-01	2.642384e-01	0.000000e+00
8.507046e-02	8.077774e-01	0.000000e+00
1.085070e+00	8.077774e-01	0.000000e+00
1.702501e-01	1.953446e-01	0.000000e+00
8.146420e-01	8.102855e-01	0.000000e+00
5.982164e-02	9.649966e-01	0.000000e+00
1.059822e+00	9.649966e-01	0.000000e+00
8.257058e-01	6.594173e-01	0.000000e+00
5.809185e-01	4.728282e-01	0.000000e+00
6.522708e-01	2.418591e-01	0.000000e+00
4.593456e-01	4.186541e-01	0.000000e+00
4.966955e-01	2.111410e-01	0.000000e+00
6.039841e-01	7.485758e-01	0.000000e+00
2.184978e-01	4.256373e-01	0.000000e+00
3.653330e-01	4.779413e-01	0.000000e+00
5.420904e-01	2.652302e-01	0.000000e+00
1.343637e-01	3.018861e-01	0.000000e+00
6.791827e-01	6.013412e-01	0.000000e+00
2.456310e-01	7.126598e-02	0.000000e+00
1.656418e-01	6.036643e-02	0.000000e+00
1.656418e-01	1.060366e+00	0.000000e+00
2.781559e-01	3.483320e-01	0.000000e+00
6.247545e-01	1.596809e-01	0.000000e+00
8.937627e-01	7.305913e-01	0.000000e+00
7.703294e-01	1.814812e-01	0.000000e+00
1.197690e-01	9.303418e-01	0.000000e+00
1.547451e-01	4.070790e-01	0.000000e+00
1.611325e-01	7.392507e-01	0.000000e+00
3.383386e-01	7.427507e-01	0.000000e+00
6.337165e-01	8.889285e-01	0.000000e+00
7.139591e-01	2.651127e-01	0.000000e+00
1.906563e-01	6.342143e-01	0.000000e+00
9.385529e-01	2.581864e-01	0.000000e+00
2.924805e-01	4.256440e-01	0.000000e+00
5.711786e-01	9.900556e-01	0.000000e+00
6.689134e-01	3.714049e-01	0.000000e+00
2.065027e-01	3.307044e-01	0.000000e+00
8.112160e-01	4.457925e-01	0.000000e+00
4.473102e-01	2.752846e-02	0.000000e+00
4.473102e-01	1.027528e+00	0.000000e+00
4.773838e-02	8.635856e-01	0.000000e+00
1.047738e+00	8.635856e-01	0.000000e+00
7.143176e-01	8.304377e-01	0.000000e+00
9.132175e-01	4.333879e-01	0.000000e+00
5.831126e-01	3.488276e-01	0.000000e+00
6.881641e-02	5.254495e-01	0.000000e+00
2.748344e-01	9.706057e-01	0.000000e+00
4.696665e-01	2.851811e-01	0.000000e+00
9.382421e-01	9.667267e-01	0.000000e+00
7.193999e-01	1.368790e-01	0.000000e+00
4.846206e-01	9.738624e-02	0.000000e+00
2.202720e-01	7.489151e-01	0.000000e+00
7.646027e-01	6.573463e-01	0.000000e+00
3.682424e-01	6.528299e-01	0.000000e+00
3.210437e-01	5.043224e-01	0.000000e+00
8.741837e-01	4.853967e-01	0.000000e+00
3.406637e-01	2.948505e-01	0.000000e+00
3.806771e-01	5.952851e-01	0.000000e+00
8.874030e-01	5.838575e-02	0.000000e+00
4.656562e-02	3.418083e-01	0.000000e+00
1.046566e+00	3.418083e-01	0.000000e+00
4.244988e-01	8.475929e-01	0.000000e+00
6.894592e-01	4.458687e-01	0.000000e+00
2.702038e-01	2.193189e-02	0.000000e+00
2.702038e-01	1.021932e+00	0.000000e+00
8.713509e-01	1.660598e-01	0.000000e+00
1.655652e-01	5.776585e-01	0.000000e+00
5.277994e-01	7.272955e-01	0.000000e+00
2.104849e-03	6.823375e-01	0.000000e+00
1.002105e+00	6.823375e-01	0.000000e+00
7.132170e-01	1.976891e-01	0.000000e+00
2.992536e-01	8.807050e-01	0.000000e+00
3.177489e-02	7.552307e-01	0.000000e+00
1.031775e+00	7.552307e-01	0.000000e+00
1.577089e-01	8.074310e-01	0.000000e+00
7.970513e-02	9.841150e-02	0.000000e+00
4.319723e-01	5.922498e-01	0.000000e+00
6.995587e-01	3.181689e-01	0.000000e+00
2.169440e-01	4.868145e-01	0.000000e+00
4.249300e-01	8.364083e-02	0.000000e+00
9.537510e-01	5.674265e-02	0.000000e+00
9.537510e-01	1.056743e+00	0.000000e+00
4.198823e-02	6.350959e-01	0.000000e+00
1.041988e+00	6.350959e-01	0.000000e+00
2.370104e-01	7.000004e-01	0.000000e+00
1.175581e-01	1.547460e-01	0.000000e+00
9.295333e-01	6.704580e-01	0.000000e+00
9.048610e-01	6.146949e-01	0.000000e+00
2.128121e-01	1.250868e-02	0.000000e+00
2.128121e-01	1.012509e+00	0.000000e+00
9.100306e-01	3.651288e-01	0.000000e+00
4.473425e-03	2.508697e-01	0.000000e+00
1.004473e+00	2.508697e-01	0.000000e+00
4.728254e-01	9.189021e-01	0.000000e+00
2.696534e-01	4.966451e-01	0.000000e+00
3.896336e-01	7.464424e-01	0.000000e+00
3.706228e-01	4.243058e-01	0.000000e+00
9.247622e-02	4.161923e-02	0.000000e+00
9.247622e-02	1.041619e+00	0.000000e+00
2.739457e-01	1.330732e-01	0.000000e+00
5.480000e-01	5.439783e-02	0.000000e+00
5.480000e-01	1.054398e+00	0.000000e+00
2.989314e-01	6.531285e-01	0.000000e+00
1.153798e-01	6.698309e-01	0.000000e+00
5.251694e-01	3.229489e-01	0.000000e+00
1.085391e-01	8.539071e-01	0.000000e+00
5.082141e-02	2.831761e-01	0.000000e+00
1.050821e+00	2.831761e-01	0.000000e+00
6.850423e-01	9.467980e-01	0.000000e+00
5.320699e-01	9.107413e-01	0.000000e+00
4.101411e-01	5.347352e-01	0.000000e+00
4.249800e-01	9.535868e-01	0.000000e+00
4.343584e-01	4.787918e-01	0.000000e+00
6.032035e-02	1.567182e-01	0.000000e+00
1.060320e+00	1.567182e-01	0.000000e+00
6.347541e-01	6.896765e-01	0.000000e+00
2.016696e-01	2.763258e-01	0.000000e+00
8.706149e-01	5.544455e-01	0.000000e+00
9.767094e-01	7.413357e-01	0.000000e+00
4.457848e-01	2.140080e-01	0.000000e+00
5.625639e-01	1.410200e-01	0.000000e+00
9.214900e-02	5.868003e-01	0.000000e+00
1.785941e-01	1.174843e-01	0.000000e+00
2.513851e-01	5.502558e-01	0.000000e+00
5.859379e-01	8.325358e-01	0.000000e+00
3.791478e-01	1.179550e-01	0.000000e+00
4.890619e-01	5.080302e-01	0.000000e+00
9.199458e-01	8.383967e-01	0.000000e+00
7.475582e-01	3.962950e-01	0.000000e+00
3.103937e-01	7.905931e-01	0.000000e+00
7.162461e-01	6.438098e-01	0.000000e+00
3.245853e-02	1.452201e-02	0.000000e+00
1.032459e+00	1.452201e-02	0.000000e+00
3.245853e-02	1.014522e+00	0.000000e+00
1.032459e+00	1.014522e+00	0.000000e+00
8.197729e-01	9.732711e-01	0.000000e+00
4.079376e-01	3.625906e-01	0.000000e+00
5.985840e-01	5.240612e-01	0.000000e+00
1.102134e-01	4.664957e-01	0.000000e+00
9.745016e-01	8.944216e-01	0.000000e+00
7.043862e-01	5.508157e-01	0.000000e+00
5.881007e-01	9.466922e-02	0.000000e+00
9.325112e-01	5.553183e-01	0.000000e+00
7.651063e-01	8.589102e-01	0.000000e+00
1.387920e-01	5.350719e-01	0.000000e+00
7.577369e-01	5.829458e-01	0.000000e+00
8.185357e-01	1.999234e-01	0.000000e+00
9.998646e-01	1.299113e-01	0.000000e+00
2.443543e-01	6.388424e-01	0.000000e+00
9.044512e-01	4.070034e-03	0.000000e+00
9.044512e-01	1.004070e+00	0.000000e+00
7.553815e-01	7.332576e-02	0.000000e+00
7.553815e-01	1.073326e+00	0.000000e+00
5.690349e-01	5.753141e-01	0.000000e+00
7.669269e-01	2.317931e-01	0.000000e+00
3.347549e-01	9.318836e-01	0.000000e+00
6.997547e-01	8.927028e-01	0.000000e+00
8.316053e-01	7.421745e-01	0.000000e+00
5.475418e-01	5.152053e-01	0.000000e+00
2.830562e-01	7.481683e-01	0.000000e+00
6.330396e-01	4.110795e-01	0.000000e+00
6.467664e-01	3.178878e-01	0.000000e+00
6.897494e-01	7.839146e-02	0.000000e+00
8.347345e-01	8.832113e-01	0.000000e+00
1.200823e-01	9.975189e-01	0.000000e+00
4.831504e-01	3.512288e-01	0.000000e+00
3.923968e-01	1.799270e-01	0.000000e+00
6.181134e-01	6.352896e-01	0.000000e+00
1.652027e-01	4.752269e-01	0.000000e+00
8.458222e-01	3.549444e-01	0.000000e+00
4.476133e-01	7.759226e-01	0.000000e+00
3.680640e-01	8.634481e-01	0.000000e+00
3.247219e-01	5.789544e-01	0.000000e+00
9.318896e-01	4.943070e-01	0.000000e+00
9.631272e-03	4.557915e-01	0.000000e+00
1.009631e+00	4.557915e-01	0.000000e+00
7.622121e-01	9.139740e-01	0.000000e+00
5.933213e-02	6.887330e-01	0.000000e+00
5.788921e-01	2.120678e-01	0.000000e+00
8.728752e-01	8.099794e-01	0.000000e+00
2.153691e-01	1.570960e-01	0.000000e+00
4.933264e-01	1.579533e-01	0.000000e+00
6.275456e-01	5.683069e-02	0.000000e+00
6.275456e-01	1.056831e+00	0.000000e+00
6.594664e-01	7.462953e-01	0.000000e+00
9.872297e-01	3.094170e-01	0.000000e+00
2.566512e-01	3.020648e-01	0.000000e+00
1.592684e-01	8.942397e-01	0.000000e+00
2.177719e-01	5.903585e-01	0.000000e+00
[...]
<PointData Scalars="scalars">
<DataArray type="Float32" Name="displacement" NumberOfComponents="3" format="ascii">
1.819550e-06	-3.292326e-04	0.000000e+00
2.828241e-06	-3.473942e-04	0.000000e+00
-7.830700e-06	-2.273504e-04	0.000000e+00
-1.233950e-07	-1.881634e-04	0.000000e+00
2.676338e-06	-5.489434e-05	0.000000e+00
-2.088745e-06	-2.731925e-04	0.000000e+00
3.916062e-06	-4.730212e-05	0.000000e+00
-1.300539e-06	-9.449470e-05	0.000000e+00
4.065953e-08	-1.065063e-04	0.000000e+00
-4.897608e-06	-2.168156e-04	0.000000e+00
2.186820e-06	-9.234953e-05	0.000000e+00
1.395196e-06	-8.406178e-05	0.000000e+00
1.326723e-06	-3.744458e-05	0.000000e+00
2.710670e-06	-3.665504e-04	0.000000e+00
-1.807310e-06	-5.795374e-05	0.000000e+00
-3.318941e-06	-6.958489e-05	0.000000e+00
-3.318941e-06	-6.958489e-05	0.000000e+00
-1.874698e-06	-2.979619e-04	0.000000e+00
-5.599676e-06	-2.117788e-04	0.000000e+00
-5.599676e-06	-2.117788e-04	0.000000e+00
-4.951629e-06	-1.877295e-04	0.000000e+00
-4.951629e-06	-1.877295e-04	0.000000e+00
-5.962799e-06	-3.838005e-04	0.000000e+00
-7.844234e-09	-3.044461e-04	0.000000e+00
2.984022e-06	-3.522504e-04	0.000000e+00
-4.245699e-06	-1.433707e-04	0.000000e+00
5.817649e-07	-2.040099e-04	0.000000e+00
-7.418436e-07	-1.858070e-05	0.000000e+00
-7.418436e-07	-1.858070e-05	0.000000e+00
-4.535789e-06	-8.800667e-05	0.000000e+00
-4.355449e-06	-2.339332e-04	0.000000e+00
-2.112019e-07	-3.062792e-04	0.000000e+00
9.573158e-07	-3.453989e-04	0.000000e+00
6.281674e-08	-2.417630e-05	0.000000e+00
6.398781e-07	7.032283e-06	0.000000e+00
6.398781e-07	-3.929677e-04	0.000000e+00
-2.846025e-06	-3.016049e-04	0.000000e+00
1.413597e-06	-8.444161e-05	0.000000e+00
-1.617486e-06	-1.240699e-04	0.000000e+00
-5.164035e-06	-1.777603e-04	0.000000e+00
-3.464474e-06	-3.664157e-04	0.000000e+00
-1.207272e-06	-2.515054e-05	0.000000e+00
-1.453649e-06	-1.401182e-04	0.000000e+00
1.173348e-06	-3.676759e-04	0.000000e+00
-2.498949e-06	-3.240090e-04	0.000000e+00
-1.716424e-06	-1.665817e-04	0.000000e+00
2.062486e-06	9.275014e-06	0.000000e+00
2.062486e-06	-3.907250e-04	0.000000e+00
-2.090800e-07	-1.482884e-04	0.000000e+00
-4.228093e-06	-3.012927e-04	0.000000e+00
-1.386421e-06	-2.668356e-04	0.000000e+00
-1.868650e-06	-1.284585e-04	0.000000e+00
4.768070e-07	-3.393935e-04	0.000000e+00
-3.354715e-06	-1.325744e-05	0.000000e+00
-3.694683e-06	-2.481657e-04	0.000000e+00
-1.125822e-06	-2.846778e-04	0.000000e+00
-4.232455e-06	-2.626096e-04	0.000000e+00
1.562352e-07	-3.682869e-04	0.000000e+00
9.405128e-07	-7.127474e-05	0.000000e+00
-3.385137e-06	-3.055505e-04	0.000000e+00
-5.496986e-07	-1.644542e-04	0.000000e+00
3.281083e-06	-8.907053e-05	0.000000e+00
-6.465450e-07	-3.010552e-04	0.000000e+00
-6.465450e-07	-3.010552e-04	0.000000e+00
-1.658096e-06	-6.490882e-05	0.000000e+00
2.030540e-06	-3.048507e-04	0.000000e+00
3.614891e-06	-3.713755e-04	0.000000e+00
3.614891e-06	-3.713755e-04	0.000000e+00
-3.392722e-06	-2.456643e-04	0.000000e+00
-4.687099e-06	-1.712149e-04	0.000000e+00
7.595389e-07	-8.015819e-05	0.000000e+00
-2.658718e-06	-1.496047e-04	0.000000e+00
7.929208e-07	-6.439838e-05	0.000000e+00
-4.261317e-06	-2.827668e-04	0.000000e+00
-1.566133e-07	-1.510466e-04	0.000000e+00
-4.797375e-06	-1.719624e-04	0.000000e+00
2.123667e-06	-8.775622e-05	0.000000e+00
-2.536132e-06	-1.067435e-04	0.000000e+00
-6.519489e-06	-2.231863e-04	0.000000e+00
-2.079637e-06	-7.913837e-06	0.000000e+00
-2.111103e-06	-1.174462e-05	0.000000e+00
-2.111103e-06	-4.117446e-04	0.000000e+00
5.693080e-07	-1.262310e-04	0.000000e+00
-2.913569e-06	-5.091071e-05	0.000000e+00
-3.972903e-06	-2.716858e-04	0.000000e+00
-1.749033e-06	-5.646966e-05	0.000000e+00
2.247690e-06	-3.542509e-04	0.000000e+00
1.033077e-06	-1.463357e-04	0.000000e+00
-4.964756e-06	-2.737192e-04	0.000000e+00
1.683055e-08	-2.771953e-04	0.000000e+00
2.672672e-06	-3.374613e-04	0.000000e+00
-1.730856e-06	-9.104651e-05	0.000000e+00
-3.650534e-06	-2.361266e-04	0.000000e+00
-6.595697e-07	-8.913890e-05	0.000000e+00
-4.476320e-06	-1.547284e-04	0.000000e+00
-1.879524e-06	-3.833972e-04	0.000000e+00
3.692117e-09	-1.283871e-04	0.000000e+00
-2.271265e-06	-1.156688e-04	0.000000e+00
-9.855091e-07	-1.599062e-04	0.000000e+00
3.842844e-06	5.614988e-06	0.000000e+00
3.842844e-06	-3.943850e-04	0.000000e+00
-2.049076e-06	-3.292218e-04	0.000000e+00
-2.049076e-06	-3.292218e-04	0.000000e+00
-1.150802e-06	-3.160689e-04	0.000000e+00
-1.530822e-06	-1.589738e-04	0.000000e+00
-1.682380e-06	-1.263559e-04	0.000000e+00
-7.524902e-06	-1.915750e-04	0.000000e+00
5.922886e-06	-3.700583e-04	0.000000e+00
-1.602396e-06	-9.433984e-05	0.000000e+00
6.874058e-06	-3.650108e-04	0.000000e+00
-1.806682e-06	-4.032950e-05	0.000000e+00
-3.688929e-06	-2.382367e-05	0.000000e+00
-5.370180e-06	-2.787281e-04	0.000000e+00
-3.900634e-06	-2.469538e-04	0.000000e+00
-8.185252e-06	-2.464884e-04	0.000000e+00
-5.500270e-06	-1.891847e-04	0.000000e+00
2.121530e-06	-1.789523e-04	0.000000e+00
6.126927e-07	-1.043317e-04	0.000000e+00
-6.174556e-06	-2.257227e-04	0.000000e+00
-1.225381e-06	-5.449447e-06	0.000000e+00
-3.246151e-06	-1.241595e-04	0.000000e+00
-3.246151e-06	-1.241595e-04	0.000000e+00
-1.543374e-07	-3.202879e-04	0.000000e+00
-1.448216e-06	-1.589510e-04	0.000000e+00
1.706959e-06	1.163671e-05	0.000000e+00
1.706959e-06	-3.883633e-04	0.000000e+00
-2.901360e-06	-5.264484e-05	0.000000e+00
-8.591846e-06	-2.094735e-04	0.000000e+00
-4.774621e-06	-2.745604e-04	0.000000e+00
-1.763730e-06	-2.562268e-04	0.000000e+00
-1.763730e-06	-2.562268e-04	0.000000e+00
-1.586853e-06	-6.412485e-05	0.000000e+00
1.195271e-06	-3.315836e-04	0.000000e+00
-2.593449e-06	-2.821979e-04	0.000000e+00
-2.593449e-06	-2.821979e-04	0.000000e+00
-1.440539e-06	-2.974888e-04	0.000000e+00
-3.087148e-06	-2.759535e-05	0.000000e+00
-7.674229e-06	-2.225888e-04	0.000000e+00
-1.369961e-06	-1.084211e-04	0.000000e+00
-3.984972e-06	-1.707576e-04	0.000000e+00
-2.349058e-08	-1.527813e-05	0.000000e+00
-1.076199e-06	-5.397545e-06	0.000000e+00
-1.076199e-06	-4.053975e-04	0.000000e+00
-3.118612e-06	-2.348635e-04	0.000000e+00
-3.118612e-06	-2.348635e-04	0.000000e+00
-5.145748e-06	-2.612742e-04	0.000000e+00
-2.611435e-06	-5.007840e-05	0.000000e+00
-4.907245e-06	-2.481662e-04	0.000000e+00
-3.583181e-06	-2.262568e-04	0.000000e+00
4.958021e-06	1.320589e-05	0.000000e+00
4.958021e-06	-3.867941e-04	0.000000e+00
-5.278066e-06	-1.300633e-04	0.000000e+00
-3.702649e-06	-8.580329e-05	0.000000e+00
-3.702649e-06	-8.580329e-05	0.000000e+00
-1.404036e-06	-3.472288e-04	0.000000e+00
-3.402672e-06	-1.792752e-04	0.000000e+00
-1.449259e-06	-2.814535e-04	0.000000e+00
-4.594708e-06	-1.533271e-04	0.000000e+00
-9.900717e-07	-5.598999e-06	0.000000e+00
-9.900717e-07	-4.055990e-04	0.000000e+00
6.570575e-08	-3.044454e-05	0.000000e+00
-3.370676e-06	-4.916288e-06	0.000000e+00
-3.370676e-06	-4.049163e-04	0.000000e+00
-5.534973e-06	-2.442413e-04	0.000000e+00
-1.968737e-06	-2.458869e-04	0.000000e+00
-9.516435e-07	-1.087908e-04	0.000000e+00
-5.188785e-07	-3.195077e-04	0.000000e+00
-1.363281e-06	-1.031858e-04	0.000000e+00
-1.363281e-06	-1.031858e-04	0.000000e+00
-3.733622e-07	-3.602929e-04	0.000000e+00
-2.788671e-06	-3.471102e-04	0.000000e+00
-5.530741e-06	-1.979403e-04	0.000000e+00
8.887885e-07	-3.616623e-04	0.000000e+00
-5.578988e-06	-1.740854e-04	0.000000e+00
-2.056051e-06	-5.004958e-05	0.000000e+00
-2.056051e-06	-5.004958e-05	0.000000e+00
-3.193040e-06	-2.618918e-04	0.000000e+00
-5.705244e-06	-9.437545e-05	0.000000e+00
-2.747491e-06	-2.034130e-04	0.000000e+00
-2.362420e-06	-2.771126e-04	0.000000e+00
4.294724e-06	-6.999719e-05	0.000000e+00
-3.775153e-06	-4.181101e-05	0.000000e+00
-6.782908e-06	-2.157183e-04	0.000000e+00
-2.196562e-06	-3.055628e-05	0.000000e+00
-4.380834e-07	-1.976773e-04	0.000000e+00
-8.798816e-07	-3.169031e-04	0.000000e+00
-8.571250e-07	-3.218858e-05	0.000000e+00
-5.097639e-06	-1.904578e-04	0.000000e+00
-3.352647e-06	-3.160532e-04	0.000000e+00
-3.384545e-06	-1.421429e-04	0.000000e+00
-1.718904e-06	-2.977432e-04	0.000000e+00
-2.442404e-06	-2.413141e-04	0.000000e+00
4.973467e-07	8.983365e-06	0.000000e+00
4.973467e-07	8.983365e-06	0.000000e+00
4.973467e-07	-3.910166e-04	0.000000e+00
4.973467e-07	-3.910166e-04	0.000000e+00
5.237540e-07	-3.715713e-04	0.000000e+00
-2.634398e-06	-1.277446e-04	0.000000e+00
-7.766380e-06	-1.933161e-04	0.000000e+00
-2.741615e-06	-1.694403e-04	0.000000e+00
-1.304934e-06	-3.373073e-04	0.000000e+00
-3.296393e-07	-2.028356e-04	0.000000e+00
1.325227e-06	-2.470588e-05	0.000000e+00
-4.734731e-06	-2.042148e-04	0.000000e+00
-1.872312e-06	-3.294363e-04	0.000000e+00
-9.351644e-06	-1.936650e-04	0.000000e+00
-1.050243e-06	-2.161390e-04	0.000000e+00
-1.319734e-06	-6.382519e-05	0.000000e+00
-3.417598e-06	-3.645157e-05	0.000000e+00
-3.591388e-06	-2.413133e-04	0.000000e+00
-1.530371e-07	1.424291e-05	0.000000e+00
-1.530371e-07	-3.857571e-04	0.000000e+00
1.168977e-06	-1.196777e-05	0.000000e+00
1.168977e-06	-4.119678e-04	0.000000e+00
-6.824742e-06	-2.124338e-04	0.000000e+00
-2.286346e-07	-7.350052e-05	0.000000e+00
2.757483e-06	-3.528709e-04	0.000000e+00
-4.444109e-07	-3.400495e-04	0.000000e+00
-1.709011e-06	-2.778164e-04	0.000000e+00
-8.155120e-06	-1.900133e-04	0.000000e+00
-2.784622e-06	-2.827037e-04	0.000000e+00
-3.291575e-06	-1.466701e-04	0.000000e+00
-1.036838e-06	-1.070771e-04	0.000000e+00
2.324171e-06	-1.949873e-05	0.000000e+00
-5.050160e-06	-3.314663e-04	0.000000e+00
1.089686e-06	-3.858537e-04	0.000000e+00
-3.814054e-06	-1.232774e-04	0.000000e+00
6.237950e-06	-5.777629e-05	0.000000e+00
-5.142316e-06	-2.384687e-04	0.000000e+00
-2.847240e-06	-1.699823e-04	0.000000e+00
-4.841527e-06	-1.237115e-04	0.000000e+00
-2.197048e-06	-2.955942e-04	0.000000e+00
-4.782202e-07	-3.247627e-04	0.000000e+00
-2.455228e-06	-2.157509e-04	0.000000e+00
-6.620481e-08	-1.838196e-04	0.000000e+00
5.903662e-07	-1.674958e-04	0.000000e+00
5.903662e-07	-1.674958e-04	0.000000e+00
-3.675554e-06	-3.489076e-04	0.000000e+00
-2.371540e-06	-2.569751e-04	0.000000e+00
-1.648436e-06	-6.881885e-05	0.000000e+00
-1.286872e-06	-3.025669e-04	0.000000e+00
8.609399e-07	-4.807004e-05	0.000000e+00
8.425080e-07	-4.688818e-05	0.000000e+00
-6.601779e-07	-1.139932e-05	0.000000e+00
-6.601779e-07	-4.113993e-04	0.000000e+00
-5.304433e-06	-2.814957e-04	0.000000e+00
-2.716857e-06	-1.097085e-04	0.000000e+00
-5.485012e-06	-1.063897e-04	0.000000e+00
4.052016e-06	-3.364666e-04	0.000000e+00
-7.745023e-06	-2.196173e-04	0.000000e+00
-2.661000e-06	-2.262391e-04	0.000000e+00
-7.795583e-06	-2.089740e-04	0.000000e+00
3.224229e-06	-3.768973e-04	0.000000e+00
-1.541933e-06	-1.717365e-04	0.000000e+00
-1.167145e-05	-2.443665e-04	0.000000e+00
2.192191e-06	-3.812816e-04	0.000000e+00
-2.581711e-06	-2.554219e-04	0.000000e+00
5.727155e-06	-3.563364e-04	0.000000e+00
5.727155e-06	-3.563364e-04	0.000000e+00
-7.107815e-07	-7.460288e-05	0.000000e+00
-3.332717e-06	-1.448986e-04	0.000000e+00
-3.332717e-06	-1.448986e-04	0.000000e+00
1.075666e-06	-3.721044e-04	0.000000e+00
1.056422e-06	2.231828e-05	0.000000e+00
1.056422e-06	-3.776817e-04	0.000000e+00
-5.367213e-06	-3.299372e-04	0.000000e+00
-1.118105e-06	-4.139777e-05	0.000000e+00
5.961620e-07	-3.499319e-04	0.000000e+00
-1.361495e-06	-1.162670e-04	0.000000e+00
-2.894841e-06	-1.576350e-06	0.000000e+00
-2.894841e-06	-4.015764e-04	0.000000e+00
1.637705e-06	-3.400892e-05	0.000000e+00
1.431217e-06	-1.246763e-04	0.000000e+00
-5.454259e-06	-2.521659e-04	0.000000e+00
-5.251157e-06	-2.542836e-04	0.000000e+00
1.234581e-06	-1.095229e-04	0.000000e+00
-1.038380e-06	-2.958929e-04	0.000000e+00
-1.662847e-06	-1.469612e-04	0.000000e+00
0.000000e+00	0.000000e+00	0.000000e+00
0.000000e+00	-4.000000e-04	0.000000e+00
0.000000e+00	0.000000e+00	0.000000e+00
0.000000e+00	0.000000e+00	0.000000e+00
0.000000e+00	0.000000e+00	0.000000e+00
0.000000e+00	0.000000e+00	0.000000e+00
0.000000e+00	0.000000e+00	0.000000e+00
0.000000e+00	0.000000e+00	0.000000e+00
0.000000e+00	0.000000e+00	0.000000e+00
0.000000e+00	0.000000e+00	0.000000e+00
0.000000e+00	0.000000e+00	0.000000e+00
0.000000e+00	0.000000e+00	0.000000e+00
0.000000e+00	0.000000e+00	0.000000e+00
0.000000e+00	0.000000e+00	0.000000e+00
0.000000e+00	0.000000e+00	0.000000e+00
0.000000e+00	0.000000e+00	0.000000e+00
0.000000e+00	0.000000e+00	0.000000e+00
0.000000e+00	0.000000e+00	0.000000e+00
0.000000e+00	0.000000e+00	0.000000e+00
0.000000e+00	0.000000e+00	0.000000e+00
0.000000e+00	0.000000e+00	0.000000e+00
0.000000e+00	0.000000e+00	0.000000e+00
0.000000e+00	0.000000e+00	0.000000e+00
0.000000e+00	0.000000e+00	0.000000e+00
0.000000e+00	0.000000e+00	0.000000e+00
0.000000e+00	0.000000e+00	0.000000e+00
0.000000e+00	0.000000e+00	0.000000e+00
0.000000e+00	0.000000e+00	0.000000e+00
0.000000e+00	0.000000e+00	0.000000e+00
0.000000e+00	0.000000e+00	0.000000e+00
0.000000e+00	0.000000e+00	0.000000e+00
0.000000e+00	0.000000e+00	0.000000e+00
0.000000e+00	0.000000e+00	0.000000e+00
0.000000e+00	0.000000e+00	0.000000e+00
0.000000e+00	0.000000e+00	0.000000e+00
0.000000e+00	0.000000e+00	0.000000e+00
0.000000e+00	0.000000e+00	0.000000e+00
0.000000e+00	0.000000e+00	0.000000e+00
0.000000e+00	0.000000e+00	0.000000e+00
0.000000e+00	0.000000e+00	0.000000e+00
0.000000e+00	0.000000e+00	0.000000e+00
0.000000e+00	0.000000e+00	0.000000e+00
0.000000e+00	0.000000e+00	0.000000e+00
0.000000e+00	0.000000e+00	0.000000e+00
0.000000e+00	0.000000e+00	0.000000e+00
0.000000e+00	0.000000e+00	0.000000e+00
0.000000e+00	0.000000e+00	0.000000e+00
0.000000e+00	0.000000e+00	0.000000e+00
0.000000e+00	0.000000e+00	0.000000e+00
0.000000e+00	0.000000e+00	0.000000e+00
0.000000e+00	0.000000e+00	0.000000e+00
0.000000e+00	0.000000e+00	0.000000e+00
0.000000e+00	0.000000e+00	0.000000e+00
0.000000e+00	0.000000e+00	0.000000e+00
0.000000e+00	0.000000e+00	0.000000e+00
0.000000e+00	0.000000e+00	0.000000e+00
0.000000e+00	0.000000e+00	0.000000e+00
0.000000e+00	0.000000e+00	0.000000e+00
0.000000e+00	0.000000e+00	0.000000e+00
0.000000e+00	0.000000e+00	0.000000e+00
0.000000e+00	0.000000e+00	0.000000e+00
0.000000e+00	0.000000e+00	0.000000e+00
0.000000e+00	0.000000e+00	0.000000e+00
0.000000e+00	0.000000e+00	0.000000e+00
0.000000e+00	0.000000e+00	0.000000e+00
0.000000e+00	0.000000e+00	0.000000e+00
0.000000e+00	0.000000e+00	0.000000e+00
0.000000e+00	0.000000e+00	0.000000e+00
0.000000e+00	0.000000e+00	0.000000e+00
0.000000e+00	0.000000e+00	0.000000e+00
0.000000e+00	0.000000e+00	0.000000e+00
0.000000e+00	0.000000e+00	0.000000e+00
0.000000e+00	0.000000e+00	0.000000e+00
0.000000e+00	0.000000e+00	0.000000e+00
0.000000e+00	0.000000e+00	0.000000e+00
0.000000e+00	0.000000e+00	0.000000e+00
0.000000e+00	0.000000e+00	0.000000e+00
0.000000e+00	0.000000e+00	0.000000e+00
0.000000e+00	0.000000e+00	0.000000e+00
0.000000e+00	0.000000e+00	0.000000e+00
0.000000e+00	0.000000e+00	0.000000e+00
0.000000e+00	0.000000e+00	0.000000e+00
0.000000e+00	0.000000e+00	0.000000e+00
0.000000e+00	0.000000e+00	0.000000e+00
0.000000e+00	0.000000e+00	0.000000e+00
0.000000e+00	0.000000e+00	0.000000e+00
0.000000e+00	0.000000e+00	0.000000e+00
0.000000e+00	0.000000e+00	0.000000e+00
0.000000e+00	0.000000e+00	0.000000e+00
0.000000e+00	0.000000e+00	0.000000e+00
0.000000e+00	0.000000e+00	0.000000e+00
0.000000e+00	0.000000e+00	0.000000e+00
0.000000e+00	0.000000e+00	0.000000e+00
0.000000e+00	0.000000e+00	0.000000e+00
0.000000e+00	0.000000e+00	0.000000e+00
0.000000e+00	0.000000e+00	0.000000e+00
0.000000e+00	0.000000e+00	0.000000e+00
0.000000e+00	0.000000e+00	0.000000e+00
0.000000e+00	0.000000e+00	0.000000e+00
0.000000e+00	0.000000e+00	0.000000e+00
0.000000e+00	0.000000e+00	0.000000e+00
0.000000e+00	0.000000e+00	0.000000e+00
0.000000e+00	0.000000e+00	0.000000e+00
0.000000e+00	0.000000e+00	0.000000e+00
0.000000e+00	0.000000e+00	0.000000e+00
0.000000e+00	0.000000e+00	0.000000e+00
0.000000e+00	0.000000e+00	0.000000e+00
0.000000e+00	0.000000e+00	0.000000e+00
0.000000e+00	0.000000e+00	0.000000e+00
0.000000e+00	0.000000e+00	0.000000e+00
0.000000e+00	0.000000e+00	0.000000e+00
0.000000e+00	0.000000e+00	0.000000e+00
0.000000e+00	0.000000e+00	0.000000e+00
0.000000e+00	0.000000e+00	0.000000e+00
0.000000e+00	0.000000e+00	0.000000e+00
0.000000e+00	0.000000e+00	0.000000e+00
0.000000e+00	0.000000e+00	0.000000e+00
0.000000e+00	0.000000e+00	0.000000e+00
0.000000e+00	0.000000e+00	0.000000e+00
0.000000e+00	0.000000e+00	0.000000e+00
0.000000e+00	0.000000e+00	0.000000e+00
0.000000e+00	0.000000e+00	0.000000e+00
0.000000e+00	0.000000e+00	0.000000e+00
0.000000e+00	0.000000e+00	0.000000e+00
0.000000e+00	0.000000e+00	0.000000e+00
0.000000e+00	0.000000e+00	0.000000e+00
0.000000e+00	0.000000e+00	0.000000e+00
0.000000e+00	0.000000e+00	0.000000e+00
0.000000e+00	0.000000e+00	0.000000e+00
0.000000e+00	0.000000e+00	0.000000e+00
0.000000e+00	0.000000e+00	0.000000e+00
0.000000e+00	0.000000e+00	0.000000e+00
0.000000e+00	0.000000e+00	0.000000e+00
0.000000e+00	0.000000e+00	0.000000e+00
0.000000e+00	0.000000e+00	0.000000e+00
0.000000e+00	0.000000e+00	0.000000e+00
0.000000e+00	0.000000e+00	0.000000e+00
0.000000e+00	0.000000e+00	0.000000e+00
0.000000e+00	0.000000e+00	0.000000e+00
0.000000e+00	0.000000e+00	0.000000e+00
0.000000e+00	0.000000e+00	0.000000e+00
0.000000e+00	0.000000e+00	0.000000e+00
0.000000e+00	0.000000e+00	0.000000e+00
0.000000e+00	0.000000e+00	0.000000e+00
0.000000e+00	0.000000e+00	0.000000e+00
0.000000e+00	0.000000e+00	0.000000e+00
0.000000e+00	0.000000e+00	0.000000e+00
0.000000e+00	0.000000e+00	0.000000e+00
0.000000e+00	0.000000e+00	0.000000e+00
0.000000e+00	0.000000e+00	0.000000e+00
0.000000e+00	0.000000e+00	0.000000e+00
0.000000e+00	0.000000e+00	0.000000e+00
0.000000e+00	0.000000e+00	0.000000e+00
0.000000e+00	0.000000e+00	0.000000e+00
0.000000e+00	0.000000e+00	0.000000e+00
0.000000e+00	0.000000e+00	0.000000e+00
0.000000e+00	0.000000e+00	0.000000e+00
0.000000e+00	0.000000e+00	0.000000e+00
0.000000e+00	0.000000e+00	0.000000e+00
0.000000e+00	0.000000e+00	0.000000e+00
0.000000e+00	0.000000e+00	0.000000e+00
0.000000e+00	0.000000e+00	0.000000e+00
0.000000e+00	0.000000e+00	0.000000e+00
0.000000e+00	0.000000e+00	0.000000e+00
0.000000e+00	0.000000e+00	0.000000e+00
0.000000e+00	0.000000e+00	0.000000e+00
0.000000e+00	0.000000e+00	0.000000e+00
0.000000e+00	0.000000e+00	0.000000e+00
0.000000e+00	0.000000e+00	0.000000e+00
0.000000e+00	0.000000e+00	0.000000e+00
0.000000e+00	0.000000e+00	0.000000e+00
0.000000e+00	0.000000e+00	0.000000e+00
0.000000e+00	0.000000e+00	0.000000e+00
0.000000e+00	0.000000e+00	0.000000e+00
0.000000e+00	0.000000e+00	0.000000e+00
0.000000e+00	0.000000e+00	0.000000e+00
0.000000e+00	0.000000e+00	0.000000e+00
0.000000e+00	0.000000e+00	0.000000e+00
0.000000e+00	0.000000e+00	0.000000e+00
0.000000e+00	0.000000e+00	0.000000e+00
0.000000e+00	0.000000e+00	0.000000e+00
0.000000e+00	0.000000e+00	0.000000e+00
0.000000e+00	0.000000e+00	0.000000e+00
0.000000e+00	0.000000e+00	0.000000e+00
0.000000e+00	0.000000e+00	0.000000e+00
0.000000e+00	0.000000e+00	0.000000e+00
0.000000e+00	0.000000e+00	0.000000e+00
0.000000e+00	0.000000e+00	0.000000e+00
0.000000e+00	0.000000e+00	0.000000e+00
0.000000e+00	0.000000e+00	0.000000e+00
0.000000e+00	0.000000e+00	0.000000e+00
0.000000e+00	0.000000e+00	0.000000e+00
0.000000e+00	0.000000e+00	0.000000e+00
0.000000e+00	0.000000e+00	0.000000e+00
0.000000e+00	0.000000e+00	0.000000e+00
0.000000e+00	0.000000e+00	0.000000e+00
0.000000e+00	0.000000e+00	0.000000e+00
0.000000e+00	0.000000e+00	0.000000e+00
0.000000e+00	0.000000e+00	0.000000e+00
0.000000e+00	0.000000e+00	0.000000e+00
0.000000e+00	0.000000e+00	0.000000e+00
0.000000e+00	0.000000e+00	0.000000e+00
0.000000e+00	0.000000e+00	0.000000e+00
0.000000e+00	0.000000e+00	0.000000e+00
0.000000e+00	0.000000e+00	0.000000e+00
0.000000e+00	0.000000e+00	0.000000e+00
0.000000e+00	0.000000e+00	0.000000e+00
0.000000e+00	0.000000e+00	0.000000e+00
0.000000e+00	0.000000e+00	0.000000e+00
0.000000e+00	0.000000e+00	0.000000e+00
0.000000e+00	0.000000e+00	0.000000e+00
0.000000e+00	0.000000e+00	0.000000e+00
0.000000e+00	0.000000e+00	0.000000e+00
0.000000e+00	0.000000e+00	0.000000e+00
0.000000e+00	0.000000e+00	0.000000e+00
0.000000e+00	0.000000e+00	0.000000e+00
0.000000e+00	0.000000e+00	0.000000e+00
0.000000e+00	0.000000e+00	0.000000e+00
0.000000e+00	0.000000e+00	0.000000e+00