<?xml version="1.0"?>
<VTKFile type="UnstructuredGrid" version="0.1" byte_order="LittleEndian">
<UnstructuredGrid>
<Piece NumberOfPoints="807" NumberOfCells="735">
<Points>
<DataArray type="Float32" NumberOfComponents="3" format="ascii">
2.219932e-01	8.707323e-01	0.000000e+00
2.067192e-01	9.186109e-01	0.000000e+00
4.884112e-01	6.117439e-01	0.000000e+00
7.659079e-01	5.184180e-01	0.000000e+00
2.968005e-01	1.877212e-01	0.000000e+00
8.074127e-02	7.384403e-01	0.000000e+00
4.413092e-01	1.583099e-01	0.000000e+00
8.799370e-01	2.740865e-01	0.000000e+00
4.142350e-01	2.960799e-01	0.000000e+00
6.287879e-01	5.798378e-01	0.000000e+00
5.999292e-01	2.658191e-01	0.000000e+00
2.846859e-01	2.535882e-01	0.000000e+00
3.275639e-01	1.441643e-01	0.000000e+00
1.656129e-01	9.639305e-01	0.000000e+00
9.602267e-01	1.884147e-01	0.000000e+00
2.430656e-02	2.045555e-01	0.000000e+00
1.024307e+00	2.045555e-01	0.000000e+00
6.998436e-01	7.795146e-01	0.000000e+00
2.293309e-02	5.776629e-01	0.000000e+00
1.022933e+00	5.776629e-01	0.000000e+00
1.642173e-03	5.154726e-01	0.000000e+00
1.001642e+00	5.154726e-01	0.000000e+00
6.397952e-01	9.856244e-01	0.000000e+00
2.590976e-01	8.024969e-01	0.000000e+00
8.704831e-01	9.227496e-01	0.000000e+00
9.814687e-01	3.989448e-01	0.000000e+00
8.137325e-01	5.464565e-01	0.000000e+00
2.911156e-02	8.652569e-02	0.000000e+00
1.029112e+00	8.652569e-02	0.000000e+00
1.114538e-01	2.512451e-01	0.000000e+00
9.649153e-01	6.317661e-01	0.000000e+00
6.353562e-01	8.119024e-01	0.000000e+00
9.266826e-01	9.126268e-01	0.000000e+00
8.248107e-01	9.420273e-02	0.000000e+00
3.610484e-01	3.550903e-02	0.000000e+00
3.610484e-01	1.035509e+00	0.000000e+00
5.463583e-01	7.961427e-01	0.000000e+00
3.654778e-01	2.442909e-01	0.000000e+00
7.950875e-01	3.520949e-01	0.000000e+00
6.388777e-01	4.934151e-01	0.000000e+00
5.834997e-01	9.392994e-01	0.000000e+00
9.435401e-01	1.116924e-01	0.000000e+00
1.008273e-01	3.834091e-01	0.000000e+00
5.103548e-01	9.611031e-01	0.000000e+00
4.783390e-01	8.499800e-01	0.000000e+00
5.147380e-01	4.466078e-01	0.000000e+00
8.004764e-01	2.039138e-02	0.000000e+00
8.004764e-01	1.020391e+00	0.000000e+00
5.726186e-01	4.113836e-01	0.000000e+00
9.851368e-01	8.014015e-01	0.000000e+00
4.524188e-01	7.029421e-01	0.000000e+00
3.320481e-01	3.599832e-01	0.000000e+00
4.076857e-01	8.985712e-01	0.000000e+00
3.302533e-01	8.273857e-02	0.000000e+00
5.267176e-01	6.608444e-01	0.000000e+00
7.699327e-01	7.590991e-01	0.000000e+00
7.100490e-01	7.015528e-01	0.000000e+00
7.673314e-01	9.743495e-01	0.000000e+00
2.396404e-01	2.214828e-01	0.000000e+00
3.635998e-01	8.103142e-01	0.000000e+00
6.009617e-02	4.497436e-01	0.000000e+00
8.131705e-01	2.642384e-01	0.000000e+00
8.507046e-02	8.077774e-01	0.000000e+00
1.085070e+00	8.077774e-01	0.000000e+00
1.702501e-01	1.953446e-01	0.000000e+00
8.146420e-01	8.102855e-01	0.000000e+00
5.982164e-02	9.649966e-01	0.000000e+00
1.059822e+00	9.649966e-01	0.000000e+00
8.257058e-01	6.594173e-01	0.000000e+00
5.809185e-01	4.728282e-01	0.000000e+00
6.522708e-01	2.418591e-01	0.000000e+00
4.593456e-01	4.186541e-01	0.000000e+00
4.966955e-01	2.111410e-01	0.000000e+00
6.039841e-01	7.485758e-01	0.000000e+00
2.184978e-01	4.256373e-01	0.000000e+00
3.653330e-01	4.779413e-01	0.000000e+00
5.420904e-01	2.652302e-01	0.000000e+00
1.343637e-01	3.018861e-01	0.000000e+00
6.791827e-01	6.013412e-01	0.000000e+00
2.456310e-01	7.126598e-02	0.000000e+00
1.656418e-01	6.036643e-02	0.000000e+00
1.656418e-01	1.060366e+00	0.000000e+00
2.781559e-01	3.483320e-01	0.000000e+00
6.247545e-01	1.596809e-01	0.000000e+00
8.937627e-01	7.305913e-01	0.000000e+00
7.703294e-01	1.814812e-01	0.000000e+00
1.197690e-01	9.303418e-01	0.000000e+00
1.547451e-01	4.070790e-01	0.000000e+00
1.611325e-01	7.392507e-01	0.000000e+00
3.383386e-01	7.427507e-01	0.000000e+00
6.337165e-01	8.889285e-01	0.000000e+00
7.139591e-01	2.651127e-01	0.000000e+00
1.906563e-01	6.342143e-01	0.000000e+00
9.385529e-01	2.581864e-01	0.000000e+00
2.924805e-01	4.256440e-01	0.000000e+00
5.711786e-01	9.900556e-01	0.000000e+00
6.689134e-01	3.714049e-01	0.000000e+00
2.065027e-01	3.307044e-01	0.000000e+00
8.112160e-01	4.457925e-01	0.000000e+00
4.473102e-01	2.752846e-02	0.000000e+00
4.473102e-01	1.027528e+00	0.000000e+00
4.773838e-02	8.635856e-01	0.000000e+00
1.047738e+00	8.635856e-01	0.000000e+00
7.143176e-01	8.304377e-01	0.000000e+00
9.132175e-01	4.333879e-01	0.000000e+00
5.831126e-01	3.488276e-01	0.000000e+00
6.881641e-02	5.254495e-01	0.000000e+00
2.748344e-01	9.706057e-01	0.000000e+00
4.696665e-01	2.851811e-01	0.000000e+00
9.382421e-01	9.667267e-01	0.000000e+00
7.193999e-01	1.368790e-01	0.000000e+00
4.846206e-01	9.738624e-02	0.000000e+00
2.202720e-01	7.489151e-01	0.000000e+00
7.646027e-01	6.573463e-01	0.000000e+00
3.682424e-01	6.528299e-01	0.000000e+00
3.210437e-01	5.043224e-01	0.000000e+00
8.741837e-01	4.853967e-01	0.000000e+00
3.406637e-01	2.948505e-01	0.000000e+00
3.806771e-01	5.952851e-01	0.000000e+00
8.874030e-01	5.838575e-02	0.000000e+00
4.656562e-02	3.418083e-01	0.000000e+00
1.046566e+00	3.418083e-01	0.000000e+00
4.244988e-01	8.475929e-01	0.000000e+00
6.894592e-01	4.458687e-01	0.000000e+00
2.702038e-01	2.193189e-02	0.000000e+00
2.702038e-01	1.021932e+00	0.000000e+00
8.713509e-01	1.660598e-01	0.000000e+00
1.655652e-01	5.776585e-01	0.000000e+00
5.277994e-01	7.272955e-01	0.000000e+00
2.104849e-03	6.823375e-01	0.000000e+00
1.002105e+00	6.823375e-01	0.000000e+00
7.132170e-01	1.976891e-01	0.000000e+00
2.992536e-01	8.807050e-01	0.000000e+00
3.177489e-02	7.552307e-01	0.000000e+00
1.031775e+00	7.552307e-01	0.000000e+00
1.577089e-01	8.074310e-01	0.000000e+00
7.970513e-02	9.841150e-02	0.000000e+00
4.319723e-01	5.922498e-01	0.000000e+00
6.995587e-01	3.181689e-01	0.000000e+00
2.169440e-01	4.868145e-01	0.000000e+00
4.249300e-01	8.364083e-02	0.000000e+00
9.537510e-01	5.674265e-02	0.000000e+00
9.537510e-01	1.056743e+00	0.000000e+00
4.198823e-02	6.350959e-01	0.000000e+00
1.041988e+00	6.350959e-01	0.000000e+00
2.370104e-01	7.000004e-01	0.000000e+00
1.175581e-01	1.547460e-01	0.000000e+00
9.295333e-01	6.704580e-01	0.000000e+00
9.048610e-01	6.146949e-01	0.000000e+00
2.128121e-01	1.250868e-02	0.000000e+00
2.128121e-01	1.012509e+00	0.000000e+00
9.100306e-01	3.651288e-01	0.000000e+00
4.473425e-03	2.508697e-01	0.000000e+00
1.004473e+00	2.508697e-01	0.000000e+00
4.728254e-01	9.189021e-01	0.000000e+00
2.696534e-01	4.966451e-01	0.000000e+00
3.896336e-01	7.464424e-01	0.000000e+00
3.706228e-01	4.243058e-01	0.000000e+00
9.247622e-02	4.161923e-02	0.000000e+00
9.247622e-02	1.041619e+00	0.000000e+00
2.739457e-01	1.330732e-01	0.000000e+00
5.480000e-01	5.439783e-02	0.000000e+00
5.480000e-01	1.054398e+00	0.000000e+00
2.989314e-01	6.531285e-01	0.000000e+00
1.153798e-01	6.698309e-01	0.000000e+00
5.251694e-01	3.229489e-01	0.000000e+00
1.085391e-01	8.539071e-01	0.000000e+00
5.082141e-02	2.831761e-01	0.000000e+00
1.050821e+00	2.831761e-01	0.000000e+00
6.850423e-01	9.467980e-01	0.000000e+00
5.320699e-01	9.107413e-01	0.000000e+00
4.101411e-01	5.347352e-01	0.000000e+00
4.249800e-01	9.535868e-01	0.000000e+00
4.343584e-01	4.787918e-01	0.000000e+00
6.032035e-02	1.567182e-01	0.000000e+00
1.060320e+00	1.567182e-01	0.000000e+00
6.347541e-01	6.896765e-01	0.000000e+00
2.016696e-01	2.763258e-01	0.000000e+00
8.706149e-01	5.544455e-01	0.000000e+00
9.767094e-01	7.413357e-01	0.000000e+00
4.457848e-01	2.140080e-01	0.000000e+00
5.625639e-01	1.410200e-01	0.000000e+00
9.214900e-02	5.868003e-01	0.000000e+00
1.785941e-01	1.174843e-01	0.000000e+00
2.513851e-01	5.502558e-01	0.000000e+00
5.859379e-01	8.325358e-01	0.000000e+00
3.791478e-01	1.179550e-01	0.000000e+00
4.890619e-01	5.080302e-01	0.000000e+00
9.199458e-01	8.383967e-01	0.000000e+00
7.475582e-01	3.962950e-01	0.000000e+00
3.103937e-01	7.905931e-01	0.000000e+00
7.162461e-01	6.438098e-01	0.000000e+00
3.245853e-02	1.452201e-02	0.000000e+00
1.032459e+00	1.452201e-02	0.000000e+00
3.245853e-02	1.014522e+00	0.000000e+00
1.032459e+00	1.014522e+00	0.000000e+00
8.197729e-01	9.732711e-01	0.000000e+00
4.079376e-01	3.625906e-01	0.000000e+00
5.985840e-01	5.240612e-01	0.000000e+00
1.102134e-01	4.664957e-01	0.000000e+00
9.745016e-01	8.944216e-01	0.000000e+00
7.043862e-01	5.508157e-01	0.000000e+00
5.881007e-01	9.466922e-02	0.000000e+00
9.325112e-01	5.553183e-01	0.000000e+00
7.651063e-01	8.589102e-01	0.000000e+00
1.387920e-01	5.350719e-01	0.000000e+00
7.577369e-01	5.829458e-01	0.000000e+00
8.185357e-01	1.999234e-01	0.000000e+00
9.998646e-01	1.299113e-01	0.000000e+00
2.443543e-01	6.388424e-01	0.000000e+00
9.044512e-01	4.070034e-03	0.000000e+00
9.044512e-01	1.004070e+00	0.000000e+00
7.553815e-01	7.332576e-02	0.000000e+00
7.553815e-01	1.073326e+00	0.000000e+00
5.690349e-01	5.753141e-01	0.000000e+00
7.669269e-01	2.317931e-01	0.000000e+00
3.347549e-01	9.318836e-01	0.000000e+00
6.997547e-01	8.927028e-01	0.000000e+00
8.316053e-01	7.421745e-01	0.000000e+00
5.475418e-01	5.152053e-01	0.000000e+00
2.830562e-01	7.481683e-01	0.000000e+00
6.330396e-01	4.110795e-01	0.000000e+00
6.467664e-01	3.178878e-01	0.000000e+00
6.897494e-01	7.839146e-02	0.000000e+00
8.347345e-01	8.832113e-01	0.000000e+00
1.200823e-01	9.975189e-01	0.000000e+00
4.831504e-01	3.512288e-01	0.000000e+00
3.923968e-01	1.799270e-01	0.000000e+00
6.181134e-01	6.352896e-01	0.000000e+00
1.652027e-01	4.752269e-01	0.000000e+00
8.458222e-01	3.549444e-01	0.000000e+00
4.476133e-01	7.759226e-01	0.000000e+00
3.680640e-01	8.634481e-01	0.000000e+00
3.247219e-01	5.789544e-01	0.000000e+00
9.318896e-01	4.943070e-01	0.000000e+00
9.631272e-03	4.557915e-01	0.000000e+00
1.009631e+00	4.557915e-01	0.000000e+00
7.622121e-01	9.139740e-01	0.000000e+00
5.933213e-02	6.887330e-01	0.000000e+00
5.788921e-01	2.120678e-01	0.000000e+00
8.728752e-01	8.099794e-01	0.000000e+00
2.153691e-01	1.570960e-01	0.000000e+00
4.933264e-01	1.579533e-01	0.000000e+00
6.275456e-01	5.683069e-02	0.000000e+00
6.275456e-01	1.056831e+00	0.000000e+00
6.594664e-01	7.462953e-01	0.000000e+00
9.872297e-01	3.094170e-01	0.000000e+00
2.566512e-01	3.020648e-01	0.000000e+00
1.592684e-01	8.942397e-01	0.000000e+00
2.177719e-01	5.903585e-01	0.000000e+00
[...]
<PointData Scalars="scalars">
<DataArray type="Float32" Name="displacement" NumberOfComponents="3" format="ascii">
1.075294e-06	-2.880371e-04	0.000000e+00
2.165601e-06	-3.039879e-04	0.000000e+00
-6.958169e-06	-1.991195e-04	0.000000e+00
-1.920280e-07	-1.647941e-04	0.000000e+00
2.545690e-06	-4.815628e-05	0.000000e+00
-1.821250e-06	-2.393912e-04	0.000000e+00
3.223762e-06	-4.145095e-05	0.000000e+00
-1.145817e-06	-8.269629e-05	0.000000e+00
-9.647770e-08	-9.322912e-05	0.000000e+00
-4.490844e-06	-1.898252e-04	0.000000e+00
1.770672e-06	-8.080895e-05	0.000000e+00
1.053845e-06	-7.355049e-05	0.000000e+00
9.213718e-07	-3.314196e-05	0.000000e+00
2.147783e-06	-3.206306e-04	0.000000e+00
-1.657461e-06	-5.075139e-05	0.000000e+00
-2.968188e-06	-6.102995e-05	0.000000e+00
-2.968188e-06	-6.102995e-05	0.000000e+00
-1.603732e-06	-2.609399e-04	0.000000e+00
-4.611544e-06	-1.855274e-04	0.000000e+00
-4.611544e-06	-1.855274e-04	0.000000e+00
-4.150537e-06	-1.644378e-04	0.000000e+00
-4.150537e-06	-1.644378e-04	0.000000e+00
-4.954380e-06	-3.357524e-04	0.000000e+00
-1.949323e-07	-2.661756e-04	0.000000e+00
1.761027e-06	-3.076812e-04	0.000000e+00
-3.641577e-06	-1.256085e-04	0.000000e+00
5.007202e-07	-1.787323e-04	0.000000e+00
-8.285208e-07	-1.632685e-05	0.000000e+00
-8.285208e-07	-1.632685e-05	0.000000e+00
-3.976316e-06	-7.743070e-05	0.000000e+00
-3.634238e-06	-2.049845e-04	0.000000e+00
-1.158882e-07	-2.683354e-04	0.000000e+00
6.422065e-09	-3.025198e-04	0.000000e+00
-1.254733e-07	-2.101796e-05	0.000000e+00
5.367687e-07	5.988496e-06	0.000000e+00
5.367687e-07	-3.440115e-04	0.000000e+00
-2.485848e-06	-2.639811e-04	0.000000e+00
1.119425e-06	-7.389481e-05	0.000000e+00
-1.452314e-06	-1.085966e-04	0.000000e+00
-4.752287e-06	-1.558167e-04	0.000000e+00
-2.904016e-06	-3.203648e-04	0.000000e+00
-1.196797e-06	-2.199540e-05	0.000000e+00
-1.157199e-06	-1.226529e-04	0.000000e+00
1.161806e-06	-3.216916e-04	0.000000e+00
-1.941367e-06	-2.834866e-04	0.000000e+00
-1.684028e-06	-1.458338e-04	0.000000e+00
1.491553e-06	8.365234e-06	0.000000e+00
1.491553e-06	-3.416348e-04	0.000000e+00
-3.424127e-07	-1.298432e-04	0.000000e+00
-3.637236e-06	-2.638114e-04	0.000000e+00
-1.337289e-06	-2.334298e-04	0.000000e+00
-1.766410e-06	-1.125178e-04	0.000000e+00
4.898129e-07	-2.969539e-04	0.000000e+00
-2.994991e-06	-1.186830e-05	0.000000e+00
-3.516872e-06	-2.171376e-04	0.000000e+00
-1.010458e-06	-2.494562e-04	0.000000e+00
-3.780261e-06	-2.300596e-04	0.000000e+00
1.530069e-07	-3.222520e-04	0.000000e+00
1.000626e-06	-6.286991e-05	0.000000e+00
-2.978948e-06	-2.672265e-04	0.000000e+00
-4.482068e-07	-1.440368e-04	0.000000e+00
2.840036e-06	-7.790696e-05	0.000000e+00
-3.957383e-07	-2.638101e-04	0.000000e+00
-3.957383e-07	-2.638101e-04	0.000000e+00
-1.414263e-06	-5.714049e-05	0.000000e+00
1.748465e-06	-2.672436e-04	0.000000e+00
2.819649e-06	-3.249796e-04	0.000000e+00
2.819649e-06	-3.249796e-04	0.000000e+00
-2.960909e-06	-2.153063e-04	0.000000e+00
-4.217486e-06	-1.499517e-04	0.000000e+00
5.420805e-07	-7.009255e-05	0.000000e+00
-2.529455e-06	-1.309283e-04	0.000000e+00
5.226130e-07	-5.637960e-05	0.000000e+00
-3.771043e-06	-2.476598e-04	0.000000e+00
-3.071173e-07	-1.328240e-04	0.000000e+00
-4.516282e-06	-1.504964e-04	0.000000e+00
1.697798e-06	-7.680978e-05	0.000000e+00
-2.149373e-06	-9.401182e-05	0.000000e+00
-5.887176e-06	-1.954552e-04	0.000000e+00
-1.933911e-06	-7.140272e-06	0.000000e+00
-2.018936e-06	-1.041995e-05	0.000000e+00
-2.018936e-06	-3.604200e-04	0.000000e+00
3.842005e-07	-1.106712e-04	0.000000e+00
-2.682494e-06	-4.445575e-05	0.000000e+00
-3.398574e-06	-2.381604e-04	0.000000e+00
-1.628086e-06	-4.929429e-05	0.000000e+00
1.699356e-06	-3.096406e-04	0.000000e+00
7.000422e-07	-1.283785e-04	0.000000e+00
-4.347966e-06	-2.396512e-04	0.000000e+00
-6.717389e-09	-2.423172e-04	0.000000e+00
2.214854e-06	-2.951024e-04	0.000000e+00
-1.614840e-06	-7.962781e-05	0.000000e+00
-2.971227e-06	-2.064898e-04	0.000000e+00
-5.737836e-07	-7.804912e-05	0.000000e+00
-4.086437e-06	-1.356656e-04	0.000000e+00
-1.523181e-06	-3.353271e-04	0.000000e+00
-9.260095e-08	-1.123961e-04	0.000000e+00
-2.165618e-06	-1.016002e-04	0.000000e+00
-8.818183e-07	-1.400206e-04	0.000000e+00
3.366849e-06	4.859335e-06	0.000000e+00
3.366849e-06	-3.451407e-04	0.000000e+00
-1.827806e-06	-2.879591e-04	0.000000e+00
-1.827806e-06	-2.879591e-04	0.000000e+00
-9.484639e-07	-2.767592e-04	0.000000e+00
-1.285617e-06	-1.392494e-04	0.000000e+00
-1.624262e-06	-1.106242e-04	0.000000e+00
-6.297268e-06	-1.677669e-04	0.000000e+00
5.054535e-06	-3.239201e-04	0.000000e+00
-1.555151e-06	-8.259145e-05	0.000000e+00
5.620432e-06	-3.195638e-04	0.000000e+00
-1.693783e-06	-3.512115e-05	0.000000e+00
-3.328205e-06	-2.087080e-05	0.000000e+00
-4.777813e-06	-2.436187e-04	0.000000e+00
-3.475724e-06	-2.163912e-04	0.000000e+00
-7.281953e-06	-2.156034e-04	0.000000e+00
-5.184313e-06	-1.656108e-04	0.000000e+00
1.913465e-06	-1.567542e-04	0.000000e+00
4.404499e-07	-9.136010e-05	0.000000e+00
-5.886370e-06	-1.975486e-04	0.000000e+00
-1.247429e-06	-4.637291e-06	0.000000e+00
-2.625206e-06	-1.088405e-04	0.000000e+00
-2.625206e-06	-1.088405e-04	0.000000e+00
-7.879576e-09	-2.801689e-04	0.000000e+00
-1.374799e-06	-1.391780e-04	0.000000e+00
1.396529e-06	1.001950e-05	0.000000e+00
1.396529e-06	-3.399805e-04	0.000000e+00
-2.638174e-06	-4.601179e-05	0.000000e+00
-6.601810e-06	-1.836805e-04	0.000000e+00
-4.270986e-06	-2.402553e-04	0.000000e+00
-1.379060e-06	-2.244908e-04	0.000000e+00
-1.379060e-06	-2.244908e-04	0.000000e+00
-1.494132e-06	-5.600100e-05	0.000000e+00
8.550030e-07	-2.900762e-04	0.000000e+00
-2.198088e-06	-2.471193e-04	0.000000e+00
-2.198088e-06	-2.471193e-04	0.000000e+00
-1.619350e-06	-2.605754e-04	0.000000e+00
-2.868515e-06	-2.426430e-05	0.000000e+00
-7.037031e-06	-1.948135e-04	0.000000e+00
-1.291019e-06	-9.486879e-05	0.000000e+00
-3.559319e-06	-1.503630e-04	0.000000e+00
-1.117491e-07	-1.344655e-05	0.000000e+00
-1.120464e-06	-4.710507e-06	0.000000e+00
-1.120464e-06	-3.547105e-04	0.000000e+00
-2.449767e-06	-2.057918e-04	0.000000e+00
-2.449767e-06	-2.057918e-04	0.000000e+00
-4.476199e-06	-2.281448e-04	0.000000e+00
-2.351236e-06	-4.405697e-05	0.000000e+00
-4.175730e-06	-2.174794e-04	0.000000e+00
-3.028787e-06	-1.982605e-04	0.000000e+00
4.205013e-06	1.147311e-05	0.000000e+00
4.205013e-06	-3.385269e-04	0.000000e+00
-4.592422e-06	-1.139044e-04	0.000000e+00
-3.239408e-06	-7.520205e-05	0.000000e+00
-3.239408e-06	-7.520205e-05	0.000000e+00
-1.058882e-06	-3.038297e-04	0.000000e+00
-3.210303e-06	-1.573144e-04	0.000000e+00
-1.296365e-06	-2.461504e-04	0.000000e+00
-4.236420e-06	-1.342132e-04	0.000000e+00
-1.117376e-06	-4.966578e-06	0.000000e+00
-1.117376e-06	-3.549666e-04	0.000000e+00
8.377755e-08	-2.701780e-05	0.000000e+00
-2.956891e-06	-4.239487e-06	0.000000e+00
-2.956891e-06	-3.542395e-04	0.000000e+00
-4.895832e-06	-2.132953e-04	0.000000e+00
-1.529119e-06	-2.154043e-04	0.000000e+00
-9.965204e-07	-9.522620e-05	0.000000e+00
-8.934126e-07	-2.797118e-04	0.000000e+00
-1.121896e-06	-9.051016e-05	0.000000e+00
-1.121896e-06	-9.051016e-05	0.000000e+00
-1.063798e-07	-3.154356e-04	0.000000e+00
-2.185562e-06	-3.037089e-04	0.000000e+00
-5.261836e-06	-1.732143e-04	0.000000e+00
8.532748e-07	-3.164957e-04	0.000000e+00
-5.172842e-06	-1.523491e-04	0.000000e+00
-1.897681e-06	-4.395173e-05	0.000000e+00
-1.897681e-06	-4.395173e-05	0.000000e+00
-2.949576e-06	-2.293625e-04	0.000000e+00
-4.923428e-06	-8.299083e-05	0.000000e+00
-2.351894e-06	-1.782104e-04	0.000000e+00
-1.955562e-06	-2.427579e-04	0.000000e+00
3.570529e-06	-6.131459e-05	0.000000e+00
-3.426737e-06	-3.655662e-05	0.000000e+00
-5.428136e-06	-1.889924e-04	0.000000e+00
-1.991574e-06	-2.696998e-05	0.000000e+00
-1.319883e-06	-1.738074e-04	0.000000e+00
-4.479358e-07	-2.776197e-04	0.000000e+00
-8.961693e-07	-2.828432e-05	0.000000e+00
-4.706511e-06	-1.667584e-04	0.000000e+00
-3.032877e-06	-2.770060e-04	0.000000e+00
-3.031182e-06	-1.244411e-04	0.000000e+00
-1.591617e-06	-2.602982e-04	0.000000e+00
-2.247453e-06	-2.113937e-04	0.000000e+00
1.319498e-07	7.809989e-06	0.000000e+00
1.319498e-07	7.809989e-06	0.000000e+00
1.319498e-07	-3.421900e-04	0.000000e+00
1.319498e-07	-3.421900e-04	0.000000e+00
3.824258e-07	-3.247528e-04	0.000000e+00
-2.464417e-06	-1.118124e-04	0.000000e+00
-6.886504e-06	-1.692360e-04	0.000000e+00
-2.372363e-06	-1.484293e-04	0.000000e+00
-1.616849e-06	-2.952762e-04	0.000000e+00
-4.536238e-07	-1.776478e-04	0.000000e+00
1.118688e-06	-2.155561e-05	0.000000e+00
-4.013591e-06	-1.789093e-04	0.000000e+00
-1.431828e-06	-2.884500e-04	0.000000e+00
-7.672607e-06	-1.697062e-04	0.000000e+00
-1.003991e-06	-1.893455e-04	0.000000e+00
-1.233098e-06	-5.577129e-05	0.000000e+00
-3.123733e-06	-3.195513e-05	0.000000e+00
-3.138029e-06	-2.102877e-04	0.000000e+00
-2.532037e-07	1.259625e-05	0.000000e+00
-2.532037e-07	-3.374037e-04	0.000000e+00
8.122441e-07	-1.029289e-05	0.000000e+00
8.122441e-07	-3.602929e-04	0.000000e+00
-6.205888e-06	-1.860557e-04	0.000000e+00
-2.759196e-07	-6.422960e-05	0.000000e+00
2.342065e-06	-3.088145e-04	0.000000e+00
-3.200190e-07	-2.977808e-04	0.000000e+00
-1.500614e-06	-2.435632e-04	0.000000e+00
-7.311439e-06	-1.664258e-04	0.000000e+00
-2.477341e-06	-2.470407e-04	0.000000e+00
-3.009054e-06	-1.284628e-04	0.000000e+00
-1.027604e-06	-9.370601e-05	0.000000e+00
1.925627e-06	-1.679974e-05	0.000000e+00
-3.795020e-06	-2.908562e-04	0.000000e+00
6.866605e-07	-3.376073e-04	0.000000e+00
-3.504707e-06	-1.079016e-04	0.000000e+00
5.185282e-06	-5.064180e-05	0.000000e+00
-4.771498e-06	-2.088664e-04	0.000000e+00
-2.518202e-06	-1.492641e-04	0.000000e+00
-4.252519e-06	-1.082975e-04	0.000000e+00
-1.930681e-06	-2.585714e-04	0.000000e+00
-4.346423e-07	-2.840874e-04	0.000000e+00
-2.925109e-06	-1.886865e-04	0.000000e+00
4.190931e-08	-1.610280e-04	0.000000e+00
5.928615e-07	-1.467280e-04	0.000000e+00
5.928615e-07	-1.467280e-04	0.000000e+00
-2.771864e-06	-3.054570e-04	0.000000e+00
-1.924498e-06	-2.251604e-04	0.000000e+00
-1.599932e-06	-6.019621e-05	0.000000e+00
-1.124933e-06	-2.654924e-04	0.000000e+00
7.674251e-07	-4.240459e-05	0.000000e+00
5.706771e-07	-4.105099e-05	0.000000e+00
-5.311365e-07	-9.890202e-06	0.000000e+00
-5.311365e-07	-3.598902e-04	0.000000e+00
-4.638830e-06	-2.465559e-04	0.000000e+00
-2.286807e-06	-9.611033e-05	0.000000e+00
-4.886234e-06	-9.323580e-05	0.000000e+00
3.018117e-06	-2.941490e-04	0.000000e+00
-6.016545e-06	-1.915832e-04	0.000000e+00
-2.344966e-06	-1.982426e-04	0.000000e+00
-7.158483e-06	-1.830008e-04	0.000000e+00
2.501805e-06	-3.298816e-04	0.000000e+00
-1.421834e-06	-1.503938e-04	0.000000e+00
-1.028301e-05	-2.138500e-04	0.000000e+00
1.842793e-06	-3.338069e-04	0.000000e+00
-2.187699e-06	-2.234553e-04	0.000000e+00
4.593750e-06	-3.118922e-04	0.000000e+00
4.593750e-06	-3.118922e-04	0.000000e+00
-6.664808e-07	-6.527564e-05	0.000000e+00
-2.839774e-06	-1.269799e-04	0.000000e+00
-2.839774e-06	-1.269799e-04	0.000000e+00
8.997780e-07	-3.257069e-04	0.000000e+00
9.323869e-07	1.944020e-05	0.000000e+00
9.323869e-07	-3.305598e-04	0.000000e+00
-4.208886e-06	-2.887013e-04	0.000000e+00
-1.095840e-06	-3.610861e-05	0.000000e+00
2.398652e-07	-3.062365e-04	0.000000e+00
-1.257019e-06	-1.017511e-04	0.000000e+00
-2.353327e-06	-1.187569e-06	0.000000e+00
-2.353327e-06	-3.511876e-04	0.000000e+00
1.337917e-06	-2.961746e-05	0.000000e+00
9.656668e-07	-1.097191e-04	0.000000e+00
-4.716327e-06	-2.210258e-04	0.000000e+00
-4.810089e-06	-2.226394e-04	0.000000e+00
1.137012e-06	-9.590404e-05	0.000000e+00
-8.272441e-07	-2.592899e-04	0.000000e+00
-1.442481e-06	-1.286867e-04	0.000000e+00
0.000000e+00	0.000000e+00	0.000000e+00
0.000000e+00	-3.500000e-04	0.000000e+00
0.000000e+00	0.000000e+00	0.000000e+00
0.000000e+00	0.000000e+00	0.000000e+00
0.000000e+00	0.000000e+00	0.000000e+00
0.000000e+00	0.000000e+00	0.000000e+00
0.000000e+00	0.000000e+00	0.000000e+00
0.000000e+00	0.000000e+00	0.000000e+00
0.000000e+00	0.000000e+00	0.000000e+00
0.000000e+00	0.000000e+00	0.000000e+00
0.000000e+00	0.000000e+00	0.000000e+00
0.000000e+00	0.000000e+00	0.000000e+00
0.000000e+00	0.000000e+00	0.000000e+00
0.000000e+00	0.000000e+00	0.000000e+00
0.000000e+00	0.000000e+00	0.000000e+00
0.000000e+00	0.000000e+00	0.000000e+00
0.000000e+00	0.000000e+00	0.000000e+00
0.000000e+00	0.000000e+00	0.000000e+00
0.000000e+00	0.000000e+00	0.000000e+00
0.000000e+00	0.000000e+00	0.000000e+00
0.000000e+00	0.000000e+00	0.000000e+00
0.000000e+00	0.000000e+00	0.000000e+00
0.000000e+00	0.000000e+00	0.000000e+00
0.000000e+00	0.000000e+00	0.000000e+00
0.000000e+00	0.000000e+00	0.000000e+00
0.000000e+00	0.000000e+00	0.000000e+00
0.000000e+00	0.000000e+00	0.000000e+00
0.000000e+00	0.000000e+00	0.000000e+00
0.000000e+00	0.000000e+00	0.000000e+00
0.000000e+00	0.000000e+00	0.000000e+00
0.000000e+00	0.000000e+00	0.000000e+00
0.000000e+00	0.000000e+00	0.000000e+00
0.000000e+00	0.000000e+00	0.000000e+00
0.000000e+00	0.000000e+00	0.000000e+00
0.000000e+00	0.000000e+00	0.000000e+00
0.000000e+00	0.000000e+00	0.000000e+00
0.000000e+00	0.000000e+00	0.000000e+00
0.000000e+00	0.000000e+00	0.000000e+00
0.000000e+00	0.000000e+00	0.000000e+00
0.000000e+00	0.000000e+00	0.000000e+00
0.000000e+00	0.000000e+00	0.000000e+00
0.000000e+00	0.000000e+00	0.000000e+00
0.000000e+00	0.000000e+00	0.000000e+00
0.000000e+00	0.000000e+00	0.000000e+00
0.000000e+00	0.000000e+00	0.000000e+00
0.000000e+00	0.000000e+00	0.000000e+00
0.000000e+00	0.000000e+00	0.000000e+00
0.000000e+00	0.000000e+00	0.000000e+00
0.000000e+00	0.000000e+00	0.000000e+00
0.000000e+00	0.000000e+00	0.000000e+00
0.000000e+00	0.000000e+00	0.000000e+00
0.000000e+00	0.000000e+00	0.000000e+00
0.000000e+00	0.000000e+00	0.000000e+00
0.000000e+00	0.000000e+00	0.000000e+00
0.000000e+00	0.000000e+00	0.000000e+00
0.000000e+00	0.000000e+00	0.000000e+00
0.000000e+00	0.000000e+00	0.000000e+00
0.000000e+00	0.000000e+00	0.000000e+00
0.000000e+00	0.000000e+00	0.000000e+00
0.000000e+00	0.000000e+00	0.000000e+00
0.000000e+00	0.000000e+00	0.000000e+00
0.000000e+00	0.000000e+00	0.000000e+00
0.000000e+00	0.000000e+00	0.000000e+00
0.000000e+00	0.000000e+00	0.000000e+00
0.000000e+00	0.000000e+00	0.000000e+00
0.000000e+00	0.000000e+00	0.000000e+00
0.000000e+00	0.000000e+00	0.000000e+00
0.000000e+00	0.000000e+00	0.000000e+00
0.000000e+00	0.000000e+00	0.000000e+00
0.000000e+00	0.000000e+00	0.000000e+00
0.000000e+00	0.000000e+00	0.000000e+00
0.000000e+00	0.000000e+00	0.000000e+00
0.000000e+00	0.000000e+00	0.000000e+00
0.000000e+00	0.000000e+00	0.000000e+00
0.000000e+00	0.000000e+00	0.000000e+00
0.000000e+00	0.000000e+00	0.000000e+00
0.000000e+00	0.000000e+00	0.000000e+00
0.000000e+00	0.000000e+00	0.000000e+00
0.000000e+00	0.000000e+00	0.000000e+00
0.000000e+00	0.000000e+00	0.000000e+00
0.000000e+00	0.000000e+00	0.000000e+00
0.000000e+00	0.000000e+00	0.000000e+00
0.000000e+00	0.000000e+00	0.000000e+00
0.000000e+00	0.000000e+00	0.000000e+00
0.000000e+00	0.000000e+00	0.000000e+00
0.000000e+00	0.000000e+00	0.000000e+00
0.000000e+00	0.000000e+00	0.000000e+00
0.000000e+00	0.000000e+00	0.000000e+00
0.000000e+00	0.000000e+00	0.000000e+00
0.000000e+00	0.000000e+00	0.000000e+00
0.000000e+00	0.000000e+00	0.000000e+00
0.000000e+00	0.000000e+00	0.000000e+00
0.000000e+00	0.000000e+00	0.000000e+00
0.000000e+00	0.000000e+00	0.000000e+00
0.000000e+00	0.000000e+00	0.000000e+00
0.000000e+00	0.000000e+00	0.000000e+00
0.000000e+00	0.000000e+00	0.000000e+00
0.000000e+00	0.000000e+00	0.000000e+00
0.000000e+00	0.000000e+00	0.000000e+00
0.000000e+00	0.000000e+00	0.000000e+00
0.000000e+00	0.000000e+00	0.000000e+00
0.000000e+00	0.000000e+00	0.000000e+00
0.000000e+00	0.000000e+00	0.000000e+00
0.000000e+00	0.000000e+00	0.000000e+00
0.000000e+00	0.000000e+00	0.000000e+00
0.000000e+00	0.000000e+00	0.000000e+00
0.000000e+00	0.000000e+00	0.000000e+00
0.000000e+00	0.000000e+00	0.000000e+00
0.000000e+00	0.000000e+00	0.000000e+00
0.000000e+00	0.000000e+00	0.000000e+00
0.000000e+00	0.000000e+00	0.000000e+00
0.000000e+00	0.000000e+00	0.000000e+00
0.000000e+00	0.000000e+00	0.000000e+00
0.000000e+00	0.000000e+00	0.000000e+00
0.000000e+00	0.000000e+00	0.000000e+00
0.000000e+00	0.000000e+00	0.000000e+00
0.000000e+00	0.000000e+00	0.000000e+00
0.000000e+00	0.000000e+00	0.000000e+00
0.000000e+00	0.000000e+00	0.000000e+00
0.000000e+00	0.000000e+00	0.000000e+00
0.000000e+00	0.000000e+00	0.000000e+00
0.000000e+00	0.000000e+00	0.000000e+00
0.000000e+00	0.000000e+00	0.000000e+00
0.000000e+00	0.000000e+00	0.000000e+00
0.000000e+00	0.000000e+00	0.000000e+00
0.000000e+00	0.000000e+00	0.000000e+00
0.000000e+00	0.000000e+00	0.000000e+00
0.000000e+00	0.000000e+00	0.000000e+00
0.000000e+00	0.000000e+00	0.000000e+00
0.000000e+00	0.000000e+00	0.000000e+00
0.000000e+00	0.000000e+00	0.000000e+00
0.000000e+00	0.000000e+00	0.000000e+00
0.000000e+00	0.000000e+00	0.000000e+00
0.000000e+00	0.000000e+00	0.000000e+00
0.000000e+00	0.000000e+00	0.000000e+00
0.000000e+00	0.000000e+00	0.000000e+00
0.000000e+00	0.000000e+00	0.000000e+00
0.000000e+00	0.000000e+00	0.000000e+00
0.000000e+00	0.000000e+00	0.000000e+00
0.000000e+00	0.000000e+00	0.000000e+00
0.000000e+00	0.000000e+00	0.000000e+00
0.000000e+00	0.000000e+00	0.000000e+00
0.000000e+00	0.000000e+00	0.000000e+00
0.000000e+00	0.000000e+00	0.000000e+00
0.000000e+00	0.000000e+00	0.000000e+00
0.000000e+00	0.000000e+00	0.000000e+00
0.000000e+00	0.000000e+00	0.000000e+00
0.000000e+00	0.000000e+00	0.000000e+00
0.000000e+00	0.000000e+00	0.000000e+00
0.000000e+00	0.000000e+00	0.000000e+00
0.000000e+00	0.000000e+00	0.000000e+00
0.000000e+00	0.000000e+00	0.000000e+00
0.000000e+00	0.000000e+00	0.000000e+00
0.000000e+00	0.000000e+00	0.000000e+00
0.000000e+00	0.000000e+00	0.000000e+00
0.000000e+00	0.000000e+00	0.000000e+00
0.000000e+00	0.000000e+00	0.000000e+00
0.000000e+00	0.000000e+00	0.000000e+00
0.000000e+00	0.000000e+00	0.000000e+00
0.000000e+00	0.000000e+00	0.000000e+00
0.000000e+00	0.000000e+00	0.000000e+00
0.000000e+00	0.000000e+00	0.000000e+00
0.000000e+00	0.000000e+00	0.000000e+00
0.000000e+00	0.000000e+00	0.000000e+00
0.000000e+00	0.000000e+00	0.000000e+00
0.000000e+00	0.000000e+00	0.000000e+00
0.000000e+00	0.000000e+00	0.000000e+00
0.000000e+00	0.000000e+00	0.000000e+00
0.000000e+00	0.000000e+00	0.000000e+00
0.000000e+00	0.000000e+00	0.000000e+00
0.000000e+00	0.000000e+00	0.000000e+00
0.000000e+00	0.000000e+00	0.000000e+00
0.000000e+00	0.000000e+00	0.000000e+00
0.000000e+00	0.000000e+00	0.000000e+00
0.000000e+00	0.000000e+00	0.000000e+00
0.000000e+00	0.000000e+00	0.000000e+00
0.000000e+00	0.000000e+00	0.000000e+00
0.000000e+00	0.000000e+00	0.000000e+00
0.000000e+00	0.000000e+00	0.000000e+00
0.000000e+00	0.000000e+00	0.000000e+00
0.000000e+00	0.000000e+00	0.000000e+00
0.000000e+00	0.000000e+00	0.000000e+00
0.000000e+00	0.000000e+00	0.000000e+00
0.000000e+00	0.000000e+00	0.000000e+00
0.000000e+00	0.000000e+00	0.000000e+00
0.000000e+00	0.000000e+00	0.000000e+00
0.000000e+00	0.000000e+00	0.000000e+00
0.000000e+00	0.000000e+00	0.000000e+00
0.000000e+00	0.000000e+00	0.000000e+00
0.000000e+00	0.000000e+00	0.000000e+00
0.000000e+00	0.000000e+00	0.000000e+00
0.000000e+00	0.000000e+00	0.000000e+00
0.000000e+00	0.000000e+00	0.000000e+00
0.000000e+00	0.000000e+00	0.000000e+00
0.000000e+00	0.000000e+00	0.000000e+00
0.000000e+00	0.000000e+00	0.000000e+00
0.000000e+00	0.000000e+00	0.000000e+00
0.000000e+00	0.000000e+00	0.000000e+00
0.000000e+00	0.000000e+00	0.000000e+00
0.000000e+00	0.000000e+00	0.000000e+00
0.000000e+00	0.000000e+00	0.000000e+00
0.000000e+00	0.000000e+00	0.000000e+00
0.000000e+00	0.000000e+00	0.000000e+00
0.000000e+00	0.000000e+00	0.000000e+00
0.000000e+00	0.000000e+00	0.000000e+00
0.000000e+00	0.000000e+00	0.000000e+00
0.000000e+00	0.000000e+00	0.000000e+00
0.000000e+00	0.000000e+00	0.000000e+00
0.000000e+00	0.000000e+00	0.000000e+00
0.000000e+00	0.000000e+00	0.000000e+00
0.000000e+00	0.000000e+00	0.000000e+00
0.000000e+00	0.000000e+00	0.000000e+00
0.000000e+00	0.000000e+00	0.000000e+00
0.000000e+00	0.000000e+00	0.000000e+00
0.000000e+00	0.000000e+00	0.000000e+00
0.000000e+00	0.000000e+00	0.000000e+00
0.000000e+00	0.000000e+00	0.000000e+00
0.000000e+00	0.000000e+00	0.000000e+00
0.000000e+00	0.000000e+00	0.000000e+00